! Job execution by suborca V 5.02 !
Job started from clu.thch.uni-bonn.de, running /software/cluster/orca_5_0_2_linux_x86-64_openmpi411/orca from /software/cluster/orca_5_0_2_linux_x86-64_openmpi411 on boar227 in /tmp1/rothe/Diketon_freqopt__8nwtKo
Going to copy the following really necessary files:  

                                 *****************
                                 * O   R   C   A *
                                 *****************

                                            #,                                       
                                            ###                                      
                                            ####                                     
                                            #####                                    
                                            ######                                   
                                           ########,                                 
                                     ,,################,,,,,                         
                               ,,#################################,,                 
                          ,,##########################################,,             
                       ,#########################################, ''#####,          
                    ,#############################################,,   '####,        
                  ,##################################################,,,,####,       
                ,###########''''           ''''###############################       
              ,#####''   ,,,,##########,,,,          '''####'''          '####       
            ,##' ,,,,###########################,,,                        '##       
           ' ,,###''''                  '''############,,,                           
         ,,##''                                '''############,,,,        ,,,,,,###''
      ,#''                                            '''#######################'''  
     '                                                          ''''####''''         
             ,#######,   #######,   ,#######,      ##                                
            ,#'     '#,  ##    ##  ,#'     '#,    #''#        ######   ,####,        
            ##       ##  ##   ,#'  ##            #'  '#       #        #'  '#        
            ##       ##  #######   ##           ,######,      #####,   #    #        
            '#,     ,#'  ##    ##  '#,     ,#' ,#      #,         ##   #,  ,#        
             '#######'   ##     ##  '#######'  #'      '#     #####' # '####'        



                  #######################################################
                  #                        -***-                        #
                  #          Department of theory and spectroscopy      #
                  #    Directorship and core code : Frank Neese         #
                  #        Max Planck Institute fuer Kohlenforschung    #
                  #                Kaiser Wilhelm Platz 1               #
                  #                 D-45470 Muelheim/Ruhr               #
                  #                      Germany                        #
                  #                                                     #
                  #                  All rights reserved                #
                  #                        -***-                        #
                  #######################################################


                         Program Version 5.0.2 -  RELEASE  -


 With contributions from (in alphabetic order):
   Daniel Aravena         : Magnetic Suceptibility
   Michael Atanasov       : Ab Initio Ligand Field Theory (pilot matlab implementation)
   Alexander A. Auer      : GIAO ZORA, VPT2 properties, NMR spectrum
   Ute Becker             : Parallelization
   Giovanni Bistoni       : ED, misc. LED, open-shell LED, HFLD
   Martin Brehm           : Molecular dynamics
   Dmytro Bykov           : SCF Hessian
   Vijay G. Chilkuri      : MRCI spin determinant printing, contributions to CSF-ICE
   Dipayan Datta          : RHF DLPNO-CCSD density
   Achintya Kumar Dutta   : EOM-CC, STEOM-CC
   Dmitry Ganyushin       : Spin-Orbit,Spin-Spin,Magnetic field MRCI
   Miquel Garcia          : C-PCM and meta-GGA Hessian, CC/C-PCM, Gaussian charge scheme
   Yang Guo               : DLPNO-NEVPT2, F12-NEVPT2, CIM, IAO-localization
   Andreas Hansen         : Spin unrestricted coupled pair/coupled cluster methods
   Benjamin Helmich-Paris : MC-RPA, TRAH-SCF, COSX integrals
   Lee Huntington         : MR-EOM, pCC
   Robert Izsak           : Overlap fitted RIJCOSX, COSX-SCS-MP3, EOM
   Marcus Kettner         : VPT2
   Christian Kollmar      : KDIIS, OOCD, Brueckner-CCSD(T), CCSD density, CASPT2, CASPT2-K
   Simone Kossmann        : Meta GGA functionals, TD-DFT gradient, OOMP2, MP2 Hessian
   Martin Krupicka        : Initial AUTO-CI
   Lucas Lang             : DCDCAS
   Marvin Lechner         : AUTO-CI (C++ implementation), FIC-MRCC
   Dagmar Lenk            : GEPOL surface, SMD
   Dimitrios Liakos       : Extrapolation schemes; Compound Job, initial MDCI parallelization
   Dimitrios Manganas     : Further ROCIS development; embedding schemes
   Dimitrios Pantazis     : SARC Basis sets
   Anastasios Papadopoulos: AUTO-CI, single reference methods and gradients
   Taras Petrenko         : DFT Hessian,TD-DFT gradient, ASA, ECA, R-Raman, ABS, FL, XAS/XES, NRVS
   Peter Pinski           : DLPNO-MP2, DLPNO-MP2 Gradient
   Christoph Reimann      : Effective Core Potentials
   Marius Retegan         : Local ZFS, SOC
   Christoph Riplinger    : Optimizer, TS searches, QM/MM, DLPNO-CCSD(T), (RO)-DLPNO pert. Triples
   Tobias Risthaus        : Range-separated hybrids, TD-DFT gradient, RPA, STAB
   Michael Roemelt        : Original ROCIS implementation
   Masaaki Saitow         : Open-shell DLPNO-CCSD energy and density
   Barbara Sandhoefer     : DKH picture change effects
   Avijit Sen             : IP-ROCIS
   Kantharuban Sivalingam : CASSCF convergence, NEVPT2, FIC-MRCI
   Bernardo de Souza      : ESD, SOC TD-DFT
   Georgi Stoychev        : AutoAux, RI-MP2 NMR, DLPNO-MP2 response
   Willem Van den Heuvel  : Paramagnetic NMR
   Boris Wezisla          : Elementary symmetry handling
   Frank Wennmohs         : Technical directorship


 We gratefully acknowledge several colleagues who have allowed us to
 interface, adapt or use parts of their codes:
   Stefan Grimme, W. Hujo, H. Kruse, P. Pracht,  : VdW corrections, initial TS optimization,
                  C. Bannwarth, S. Ehlert          DFT functionals, gCP, sTDA/sTD-DF
   Ed Valeev, F. Pavosevic, A. Kumar             : LibInt (2-el integral package), F12 methods
   Garnet Chan, S. Sharma, J. Yang, R. Olivares  : DMRG
   Ulf Ekstrom                                   : XCFun DFT Library
   Mihaly Kallay                                 : mrcc  (arbitrary order and MRCC methods)
   Jiri Pittner, Ondrej Demel                    : Mk-CCSD
   Frank Weinhold                                : gennbo (NPA and NBO analysis)
   Christopher J. Cramer and Donald G. Truhlar   : smd solvation model
   Lars Goerigk                                  : TD-DFT with DH, B97 family of functionals
   V. Asgeirsson, H. Jonsson                     : NEB implementation
   FAccTs GmbH                                   : IRC, NEB, NEB-TS, DLPNO-Multilevel, CI-OPT
                                                   MM, QMMM, 2- and 3-layer-ONIOM, Crystal-QMMM,
                                                   LR-CPCM, SF, NACMEs, symmetry and pop. for TD-DFT,
                                                   nearIR, NL-DFT gradient (VV10), updates on ESD,
                                                   ML-optimized integration grids
   S Lehtola, MJT Oliveira, MAL Marques          : LibXC Library
   Liviu Ungur et al                             : ANISO software


 Your calculation uses the libint2 library for the computation of 2-el integrals
 For citations please refer to: http://libint.valeyev.net

 Your ORCA version has been built with support for libXC version: 5.1.0
 For citations please refer to: https://tddft.org/programs/libxc/

 This ORCA versions uses:
   CBLAS   interface :  Fast vector & matrix operations
   LAPACKE interface :  Fast linear algebra routines
   SCALAPACK package :  Parallel linear algebra routines
   Shared memory     :  Shared parallel matrices
   BLAS/LAPACK       :  OpenBLAS 0.3.15  USE64BITINT DYNAMIC_ARCH NO_AFFINITY Barcelona SINGLE_THREADED
        Core in use  :  Barcelona
   Copyright (c) 2011-2014, The OpenBLAS Project


Your calculation utilizes the atom-pairwise dispersion correction
with the Becke-Johnson damping scheme (D3BJ)
Cite in your paper:
S.Grimme, S.Ehrlich, L.Goerigk, J Comput Chem, (2011), 32, 1456–1465 
S.Grimme, J.Antony, S.Ehrlich and H.Krieg, J.Chem.Phys., 132, (2010), 154104 
   

================================================================================

----- Orbital basis set information -----
Your calculation utilizes the basis: def2-TZVP
   F. Weigend and R. Ahlrichs, Phys. Chem. Chem. Phys. 7, 3297 (2005).

----- AuxJ basis set information -----
Your calculation utilizes the auxiliary basis: def2/J
   F. Weigend, Phys. Chem. Chem. Phys. 8, 1057 (2006).

================================================================================
                                        WARNINGS
                       Please study these warnings very carefully!
================================================================================


WARNING: Geometry Optimization
  ===> : Switching off AutoStart
         For restart on a previous wavefunction, please use MOREAD

INFO   : the flag for use of the SHARK integral package has been found!

================================================================================
                                       INPUT FILE
================================================================================
NAME = Diketon_freqopt.inp
|  1> ! TPSS D3BJ def2-TZVP RI def2/J CPCM(THF)
|  2> ! Opt numfreq Pal8
|  3> 
|  4> * xyz 0 1
|  5> C        -0.36832749605033    1.24982167496658    0.47550286728424
|  6> C        -0.64594285402762    0.11273551230858   -0.27836517338662
|  7> C         0.38468480238288   -0.74436459362446   -0.63338234023361
|  8> C         1.68933303100199   -0.49083460101876   -0.26070126233138
|  9> C         1.98170006604937    0.64719950352312    0.49563612931524
| 10> C         0.94759013189849    1.50250461304551    0.85877352475405
| 11> O        -1.29167563385896    2.15939438261815    0.88395505331158
| 12> C        -2.64605169563180    1.96133073363496    0.52879046264025
| 13> H        -2.77673738319265    1.96616825682577   -0.55729519883028
| 14> H        -3.18386013521951    2.80221500235902    0.96266108439811
| 15> H        -3.03364086548450    1.02676713373029    0.94465101555486
| 16> H        -1.65200780557677   -0.11623645631931   -0.59036164650709
| 17> H         1.16621374838058    2.38166559366014    1.44507505142234
| 18> H         0.15536959048704   -1.62572947246557   -1.21281447033070
| 19> H         2.46337794469322   -1.18322725292879   -0.54537227250251
| 20> C         3.35192851782183    0.99545193037655    0.95195959826228
| 21> C         4.49074295593645    0.22103126589321    0.32456191332701
| 22> O         3.53959705272645    1.85588211063192    1.78927455779474
| 23> C         5.86535837749068    0.77444916400064    0.72010160211946
| 24> H         4.36582065924813    0.23270479020189   -0.75829382635074
| 25> H         4.40863120844845   -0.81382504278882    0.66539795899369
| 26> C         6.97995678224359   -0.10685618523783    0.13872849264795
| 27> C         6.03786211963292    2.20176712386110    0.26227980542415
| 28> H         5.94364055507129    0.75819902884550    1.81129516105906
| 29> C         5.90571903124424    2.54357302862161   -1.08135710952232
| 30> C         6.35173180148219    3.20074488402660    1.17668736150083
| 31> C         6.53297619679878    4.50744662078797    0.76909085006499
| 32> C         6.07958618537479    3.84645069462675   -1.49891309958009
| 33> H         5.66315582330089    1.79018590219679   -1.81620267130640
| 34> C         6.39809003267484    4.84282063122649   -0.57704744143288
| 35> H         5.97605853061975    4.11741278247852   -2.53913086449268
| 36> H         6.45785101722577    2.94695542496407    2.21978241097752
| 37> H         6.77753150643702    5.27453885882252    1.48652024110863
| 38> C         6.58179336310767    6.22269272046335   -1.06591603278033
| 39> O         6.43488712597787    6.56582315099761   -2.22227376369106
| 40> O         6.93557914294677    7.08044083872386   -0.10098062834346
| 41> C         7.12965464418867    8.43728685544308   -0.49078861488574
| 42> H         7.50563518809841    8.94800230850146    0.39087004988539
| 43> H         6.18393225056070    8.87305319002661   -0.81756244399671
| 44> H         7.84686363364749    8.49541100784958   -1.31149596879914
| 45> C         8.32627498079275    0.17290390883762    0.77101728278345
| 46> H         7.05989446115661    0.05101875790664   -0.93716414120965
| 47> H         6.74964760515533   -1.16056813086668    0.31375543122546
| 48> C         9.49387314202596   -0.54995772859606    0.20763179273845
| 49> O         8.45104586158125    0.93588666969624    1.71012444032537
| 50> C         9.40754798375932   -1.46052977267611   -0.85458838627987
| 51> C        10.73194445423700   -0.30387765635950    0.78412219555752
| 52> C        11.88760874783570   -0.94544817712088    0.32804931640332
| 53> C        11.78690553824251   -1.85220565561584   -0.73773753620643
| 54> C        10.55174220300767   -2.09267755612514   -1.30911439310426
| 55> H        10.80590246165683    0.39547457464938    1.60307959839545
| 56> H         8.46434373273148   -1.67959581419906   -1.32423796181256
| 57> H        10.48166968747645   -2.79131763773464   -2.12915131148652
| 58> H        12.65661637751004   -2.36214248288652   -1.11823716471259
| 59> O        13.02499795201336   -0.61882752845040    0.97761546122843
| 60> C        14.22510438984638   -1.13634244465809    0.71418410317995
| 61> H        14.39002646389173   -1.87443440272145   -0.04457347686942
| 62> H        15.01207151682817   -0.75368165451506    1.32984429220044
| 63> *
| 64> 
| 65>                          ****END OF INPUT****
================================================================================

                       *****************************
                       * Geometry Optimization Run *
                       *****************************

Geometry optimization settings:
Update method            Update   .... BFGS
Choice of coordinates    CoordSys .... Z-matrix Internals
Initial Hessian          InHess   .... Almoef's Model

Convergence Tolerances:
Energy Change            TolE     ....  5.0000e-06 Eh
Max. Gradient            TolMAXG  ....  3.0000e-04 Eh/bohr
RMS Gradient             TolRMSG  ....  1.0000e-04 Eh/bohr
Max. Displacement        TolMAXD  ....  4.0000e-03 bohr
RMS Displacement         TolRMSD  ....  2.0000e-03 bohr
Strict Convergence                ....  False
------------------------------------------------------------------------------
                        ORCA OPTIMIZATION COORDINATE SETUP
------------------------------------------------------------------------------

The optimization will be done in new redundant internal coordinates
Making redundant internal coordinates   ...  (new redundants) done
Evaluating the initial hessian          ...  (Almloef) done
Evaluating the coordinates              ...  done
Calculating the B-matrix                .... done
Calculating the G-matrix                .... done
Diagonalizing the G-matrix              .... done
Small eigenvalue found = 6.674e-04
Small eigenvalue found = 1.319e-03
Small eigenvalue found = 2.845e-03
Small eigenvalue found = 4.516e-03
Small eigenvalue found = 6.709e-03
Small eigenvalue found = 1.270e-02
Small eigenvalue found = 1.346e-02
Small eigenvalue found = 1.429e-02
Small eigenvalue found = 1.901e-02
Small eigenvalue found = 2.159e-02
Small eigenvalue found = 2.698e-02
The first mode is                       ....  125
The number of degrees of freedom        ....  168

    -----------------------------------------------------------------
                    Redundant Internal Coordinates


    -----------------------------------------------------------------
         Definition                    Initial Value    Approx d2E/dq
    -----------------------------------------------------------------
      1. B(C   1,C   0)                  1.3922         0.619660   
      2. B(C   2,C   1)                  1.3867         0.632489   
      3. B(C   3,C   2)                  1.3803         0.647421   
      4. B(C   4,C   3)                  1.3974         0.608105   
      5. B(C   5,C   4)                  1.3903         0.624220   
      6. B(C   5,C   0)                  1.3937         0.616374   
      7. B(O   6,C   0)                  1.3589         0.627226   
      8. B(C   7,O   6)                  1.4141         0.512166   
      9. B(H   8,C   7)                  1.0939         0.354938   
     10. B(H   9,C   7)                  1.0884         0.362251   
     11. B(H  10,C   7)                  1.0939         0.355003   
     12. B(H  11,C   1)                  1.0779         0.376424   
     13. B(H  12,C   5)                  1.0791         0.374804   
     14. B(H  13,C   2)                  1.0794         0.374382   
     15. B(H  14,C   3)                  1.0768         0.377933   
     16. B(C  15,C   4)                  1.4856         0.439743   
     17. B(C  16,C  15)                  1.5134         0.397126   
     18. B(O  17,C  15)                  1.2152         1.063638   
     19. B(C  18,C  16)                  1.5337         0.368507   
     20. B(H  19,C  16)                  1.0901         0.359967   
     21. B(H  20,C  16)                  1.0926         0.356638   
     22. B(C  21,C  18)                  1.5353         0.366425   
     23. B(C  22,C  18)                  1.5088         0.403774   
     24. B(H  23,C  18)                  1.0941         0.354693   
     25. B(C  24,C  22)                  1.3927         0.618597   
     26. B(C  25,C  22)                  1.3902         0.624374   
     27. B(C  26,C  25)                  1.3807         0.646407   
     28. B(C  27,C  24)                  1.3792         0.650187   
     29. B(H  28,C  24)                  1.0800         0.373558   
     30. B(C  29,C  27)                  1.3943         0.615035   
     31. B(C  29,C  26)                  1.3938         0.616070   
     32. B(H  30,C  27)                  1.0799         0.373707   
     33. B(H  31,C  25)                  1.0788         0.375284   
     34. B(H  32,C  26)                  1.0784         0.375779   
     35. B(C  33,C  29)                  1.4754         0.456561   
     36. B(O  34,C  33)                  1.2151         1.063916   
     37. B(O  35,C  33)                  1.3387         0.675762   
     38. B(C  36,O  35)                  1.4250         0.492066   
     39. B(H  37,C  36)                  1.0861         0.365358   
     40. B(H  38,C  36)                  1.0914         0.358307   
     41. B(H  39,C  36)                  1.0915         0.358148   
     42. B(C  40,C  21)                  1.5135         0.396946   
     43. B(H  41,C  21)                  1.0903         0.359639   
     44. B(H  42,C  21)                  1.0927         0.356551   
     45. B(C  43,C  40)                  1.4843         0.441825   
     46. B(O  44,C  40)                  1.2164         1.058865   
     47. B(C  45,C  43)                  1.4018         0.598399   
     48. B(C  46,C  43)                  1.3877         0.630093   
     49. B(C  47,C  46)                  1.3983         0.606087   
     50. B(C  48,C  47)                  1.4029         0.595782   
     51. B(C  49,C  48)                  1.3820         0.643429   
     52. B(C  49,C  45)                  1.3840         0.638781   
     53. B(H  50,C  46)                  1.0795         0.374303   
     54. B(H  51,C  45)                  1.0762         0.378834   
     55. B(H  52,C  49)                  1.0796         0.374167   
     56. B(H  53,C  48)                  1.0776         0.376889   
     57. B(O  54,C  47)                  1.3499         0.648378   
     58. B(C  55,O  54)                  1.3332         0.689391   
     59. B(H  56,C  55)                  1.0713         0.385702   
     60. B(H  57,C  55)                  1.0699         0.387631   
     61. A(C   5,C   0,O   6)          115.9467         0.431670   
     62. A(C   1,C   0,C   5)          119.0293         0.433565   
     63. A(C   1,C   0,O   6)          125.0240         0.432083   
     64. A(C   2,C   1,H  11)          119.2282         0.356776   
     65. A(C   0,C   1,C   2)          119.6860         0.435584   
     66. A(C   0,C   1,H  11)          121.0856         0.355537   
     67. A(C   3,C   2,H  13)          119.7165         0.357863   
     68. A(C   1,C   2,C   3)          121.3216         0.439039   
     69. A(C   1,C   2,H  13)          118.9620         0.356447   
     70. A(C   4,C   3,H  14)          121.0873         0.354645   
     71. A(C   2,C   3,H  14)          119.3359         0.358438   
     72. A(C   2,C   3,C   4)          119.5697         0.435938   
     73. A(C   3,C   4,C  15)          123.3768         0.406856   
     74. A(C   3,C   4,C   5)          119.1297         0.433084   
     75. A(C   5,C   4,C  15)          117.4911         0.408743   
     76. A(C   0,C   5,H  12)          119.2366         0.354957   
     77. A(C   0,C   5,C   4)          121.2616         0.434138   
     78. A(C   4,C   5,H  12)          119.5013         0.355719   
     79. A(C   0,O   6,C   7)          118.7849         0.414899   
     80. A(H   8,C   7,H  10)          109.8094         0.289533   
     81. A(O   6,C   7,H  10)          111.3177         0.338852   
     82. A(H   8,C   7,H   9)          109.4712         0.290452   
     83. A(H   9,C   7,H  10)          109.4778         0.290461   
     84. A(O   6,C   7,H   8)          111.2941         0.338841   
     85. A(O   6,C   7,H   9)          105.3628         0.339998   
     86. A(C  16,C  15,O  17)          122.1259         0.438607   
     87. A(C   4,C  15,O  17)          121.3373         0.446767   
     88. A(C   4,C  15,C  16)          116.5364         0.377633   
     89. A(C  18,C  16,H  19)          110.7951         0.323573   
     90. A(C  15,C  16,H  19)          108.6691         0.327578   
     91. A(C  15,C  16,C  18)          112.5123         0.366315   
     92. A(H  19,C  16,H  20)          108.1435         0.290382   
     93. A(C  18,C  16,H  20)          109.1875         0.323080   
     94. A(C  15,C  16,H  20)          107.3851         0.327077   
     95. A(C  22,C  18,H  23)          107.9680         0.327677   
     96. A(C  21,C  18,H  23)          108.4936         0.322491   
     97. A(C  16,C  18,H  23)          108.4196         0.322790   
     98. A(C  16,C  18,C  22)          111.4417         0.367360   
     99. A(C  16,C  18,C  21)          110.2363         0.361311   
    100. A(C  21,C  18,C  22)          110.1893         0.367003   
    101. A(H  41,C  21,H  42)          108.2483         0.290329   
    102. A(C  40,C  21,H  42)          107.3870         0.327039   
    103. A(C  18,C  21,H  42)          109.8699         0.322767   
    104. A(C  40,C  21,H  41)          108.6781         0.327504   
    105. A(C  18,C  21,H  41)          110.1066         0.323224   
    106. A(C  18,C  21,C  40)          112.4268         0.365932   
    107. A(C  24,C  22,C  25)          118.6621         0.434438   
    108. A(C  18,C  22,C  25)          120.3977         0.402644   
    109. A(C  18,C  22,C  24)          120.9340         0.401985   
    110. A(C  27,C  24,H  28)          118.7706         0.357989   
    111. A(C  22,C  24,H  28)          120.4334         0.354973   
    112. A(C  22,C  24,C  27)          120.7959         0.437620   
    113. A(C  26,C  25,H  31)          119.6812         0.357914   
    114. A(C  22,C  25,H  31)          119.2859         0.355812   
    115. A(C  22,C  25,C  26)          121.0325         0.437894   
    116. A(C  29,C  26,H  32)          119.5578         0.355084   
    117. A(C  25,C  26,H  32)          120.4349         0.357995   
    118. A(C  25,C  26,C  29)          120.0071         0.436838   
    119. A(C  29,C  27,H  30)          118.6508         0.354650   
    120. A(C  24,C  27,H  30)          121.1035         0.358013   
    121. A(C  24,C  27,C  29)          120.2455         0.437165   
    122. A(C  27,C  29,C  33)          118.5358         0.410391   
    123. A(C  26,C  29,C  33)          122.2082         0.410513   
    124. A(C  26,C  29,C  27)          119.2561         0.432943   
    125. A(O  34,C  33,O  35)          122.4786         0.480084   
    126. A(C  29,C  33,O  35)          113.1620         0.414612   
    127. A(C  29,C  33,O  34)          124.3592         0.449840   
    128. A(C  33,O  35,C  36)          116.6743         0.417453   
    129. A(O  35,C  36,H  37)          105.8332         0.338215   
    130. A(H  38,C  36,H  39)          108.8450         0.290364   
    131. A(H  37,C  36,H  39)          110.9705         0.291254   
    132. A(O  35,C  36,H  39)          110.2358         0.337093   
    133. A(H  37,C  36,H  38)          110.8116         0.291274   
    134. A(O  35,C  36,H  38)          110.1254         0.337118   
    135. A(C  43,C  40,O  44)          121.1856         0.446785   
    136. A(C  21,C  40,O  44)          121.9867         0.438215   
    137. A(C  21,C  40,C  43)          116.8175         0.377912   
    138. A(C  45,C  43,C  46)          119.0085         0.432561   
    139. A(C  40,C  43,C  46)          117.2429         0.409764   
    140. A(C  40,C  43,C  45)          123.7472         0.406039   
    141. A(C  49,C  45,H  51)          119.2277         0.357765   
    142. A(C  43,C  45,H  51)          121.1244         0.353822   
    143. A(C  43,C  45,C  49)          119.6479         0.433627   
    144. A(C  47,C  46,H  50)          119.2150         0.353866   
    145. A(C  43,C  46,H  50)          119.4183         0.356205   
    146. A(C  43,C  46,C  47)          121.3666         0.433555   
    147. A(C  46,C  47,O  54)          115.3665         0.432939   
    148. A(C  46,C  47,C  48)          119.0132         0.429216   
    149. A(C  48,C  47,O  54)          125.6203         0.431607   
    150. A(C  49,C  48,H  53)          119.5382         0.357893   
    151. A(C  47,C  48,H  53)          121.0752         0.353251   
    152. A(C  47,C  48,C  49)          119.3865         0.433851   
    153. A(C  48,C  49,H  52)          118.9906         0.357452   
    154. A(C  45,C  49,H  52)          119.4325         0.357012   
    155. A(C  45,C  49,C  48)          121.5769         0.439333   
    156. A(C  47,O  54,C  55)          124.7112         0.440199   
    157. A(H  56,C  55,H  57)          122.7323         0.297449   
    158. A(O  54,C  55,H  57)          114.1773         0.361606   
    159. A(O  54,C  55,H  56)          123.0899         0.361299   
    160. D(H  11,C   1,C   0,O   6)     -0.0635         0.026568   
    161. D(C   2,C   1,C   0,O   6)   -179.8961         0.026568   
    162. D(C   2,C   1,C   0,C   5)     -0.0022         0.026568   
    163. D(H  11,C   1,C   0,C   5)    179.8304         0.026568   
    164. D(C   3,C   2,C   1,H  11)    179.7917         0.027751   
    165. D(C   3,C   2,C   1,C   0)     -0.3726         0.027751   
    166. D(H  13,C   2,C   1,H  11)     -0.2094         0.027751   
    167. D(H  13,C   2,C   1,C   0)    179.6263         0.027751   
    168. D(H  14,C   3,C   2,H  13)     -0.6095         0.029168   
    169. D(C   4,C   3,C   2,H  13)   -179.6506         0.029168   
    170. D(C   4,C   3,C   2,C   1)      0.3483         0.029168   
    171. D(H  14,C   3,C   2,C   1)    179.3894         0.029168   
    172. D(C  15,C   4,C   3,C   2)    179.4604         0.025530   
    173. D(C   5,C   4,C   3,C   2)      0.0495         0.025530   
    174. D(C   5,C   4,C   3,H  14)   -178.9745         0.025530   
    175. D(C  15,C   4,C   3,H  14)      0.4365         0.025530   
    176. D(H  12,C   5,C   4,C   3)    179.8360         0.026985   
    177. D(H  12,C   5,C   4,C  15)      0.3906         0.026985   
    178. D(C   0,C   5,C   4,C  15)   -179.8702         0.026985   
    179. D(C   0,C   5,C   4,C   3)     -0.4248         0.026985   
    180. D(H  12,C   5,C   0,O   6)      0.0440         0.026271   
    181. D(H  12,C   5,C   0,C   1)   -179.8594         0.026271   
    182. D(C   4,C   5,C   0,O   6)   -179.6959         0.026271   
    183. D(C   4,C   5,C   0,C   1)      0.4008         0.026271   
    184. D(C   7,O   6,C   0,C   5)   -179.9742         0.028913   
    185. D(C   7,O   6,C   0,C   1)     -0.0774         0.028913   
    186. D(H   9,C   7,O   6,C   0)    179.8986         0.020772   
    187. D(H  10,C   7,O   6,C   0)     61.3168         0.020772   
    188. D(H   8,C   7,O   6,C   0)    -61.5399         0.020772   
    189. D(C  16,C  15,C   4,C   5)   -168.1142         0.013195   
    190. D(C  16,C  15,C   4,C   3)     12.4659         0.013195   
    191. D(O  17,C  15,C   4,C   5)     12.1172         0.013195   
    192. D(O  17,C  15,C   4,C   3)   -167.3027         0.013195   
    193. D(H  20,C  16,C  15,C   4)    -67.3342         0.011712   
    194. D(H  19,C  16,C  15,O  17)   -130.8100         0.011712   
    195. D(H  19,C  16,C  15,C   4)     49.4234         0.011712   
    196. D(C  18,C  16,C  15,O  17)     -7.7377         0.011712   
    197. D(H  20,C  16,C  15,O  17)    112.4324         0.011712   
    198. D(C  18,C  16,C  15,C   4)    172.4957         0.011712   
    199. D(H  23,C  18,C  16,H  20)    -61.7847         0.010861   
    200. D(H  23,C  18,C  16,C  15)     57.3388         0.010861   
    201. D(C  22,C  18,C  16,H  20)    179.5224         0.010861   
    202. D(C  22,C  18,C  16,H  19)     60.5200         0.010861   
    203. D(C  22,C  18,C  16,C  15)    -61.3541         0.010861   
    204. D(C  21,C  18,C  16,H  20)     56.8415         0.010861   
    205. D(H  23,C  18,C  16,H  19)    179.2129         0.010861   
    206. D(C  21,C  18,C  16,H  19)    -62.1609         0.010861   
    207. D(C  21,C  18,C  16,C  15)    175.9650         0.010861   
    208. D(H  42,C  21,C  18,H  23)     72.5940         0.010746   
    209. D(H  42,C  21,C  18,C  22)   -169.3997         0.010746   
    210. D(H  42,C  21,C  18,C  16)    -45.9869         0.010746   
    211. D(H  41,C  21,C  18,H  23)   -168.2711         0.010746   
    212. D(H  41,C  21,C  18,C  22)    -50.2648         0.010746   
    213. D(H  41,C  21,C  18,C  16)     73.1480         0.010746   
    214. D(C  40,C  21,C  18,C  22)     71.0692         0.010746   
    215. D(C  40,C  21,C  18,H  23)    -46.9370         0.010746   
    216. D(C  40,C  21,C  18,C  16)   -165.5180         0.010746   
    217. D(C  25,C  22,C  18,C  21)   -113.5183         0.012089   
    218. D(C  25,C  22,C  18,C  16)    123.7739         0.012089   
    219. D(C  24,C  22,C  18,H  23)   -176.1022         0.012089   
    220. D(C  24,C  22,C  18,C  21)     65.5682         0.012089   
    221. D(C  25,C  22,C  18,H  23)      4.8113         0.012089   
    222. D(C  24,C  22,C  18,C  16)    -57.1396         0.012089   
    223. D(H  28,C  24,C  22,C  25)    179.9589         0.026472   
    224. D(H  28,C  24,C  22,C  18)      0.8569         0.026472   
    225. D(C  27,C  24,C  22,C  25)     -0.1251         0.026472   
    226. D(C  27,C  24,C  22,C  18)   -179.2271         0.026472   
    227. D(H  31,C  25,C  22,C  24)   -179.9151         0.026999   
    228. D(H  31,C  25,C  22,C  18)     -0.8081         0.026999   
    229. D(C  26,C  25,C  22,C  24)     -0.1220         0.026999   
    230. D(C  26,C  25,C  22,C  18)    178.9850         0.026999   
    231. D(H  32,C  26,C  25,H  31)     -0.1262         0.029071   
    232. D(H  32,C  26,C  25,C  22)   -179.9185         0.029071   
    233. D(C  29,C  26,C  25,H  31)    179.9716         0.029071   
    234. D(C  29,C  26,C  25,C  22)      0.1793         0.029071   
    235. D(H  30,C  27,C  24,H  28)      0.0602         0.029436   
    236. D(H  30,C  27,C  24,C  22)   -179.8572         0.029436   
    237. D(C  29,C  27,C  24,H  28)   -179.7692         0.029436   
    238. D(C  29,C  27,C  24,C  22)      0.3134         0.029436   
    239. D(C  33,C  29,C  27,C  24)    179.7189         0.026150   
    240. D(C  26,C  29,C  27,H  30)    179.9133         0.026150   
    241. D(C  26,C  29,C  27,C  24)     -0.2532         0.026150   
    242. D(C  33,C  29,C  26,H  32)      0.1350         0.026243   
    243. D(C  33,C  29,C  26,C  25)   -179.9620         0.026243   
    244. D(C  27,C  29,C  26,H  32)   -179.8941         0.026243   
    245. D(C  33,C  29,C  27,H  30)     -0.1146         0.026150   
    246. D(C  27,C  29,C  26,C  25)      0.0089         0.026243   
    247. D(O  35,C  33,C  29,C  27)   -177.5242         0.014202   
    248. D(O  35,C  33,C  29,C  26)      2.4469         0.014202   
    249. D(O  34,C  33,C  29,C  27)      2.3208         0.014202   
    250. D(O  34,C  33,C  29,C  26)   -177.7080         0.014202   
    251. D(C  36,O  35,C  33,O  34)      0.3133         0.033974   
    252. D(C  36,O  35,C  33,C  29)   -179.8383         0.033974   
    253. D(H  39,C  36,O  35,C  33)    -54.2796         0.019124   
    254. D(H  38,C  36,O  35,C  33)     65.8350         0.019124   
    255. D(H  37,C  36,O  35,C  33)   -174.3469         0.019124   
    256. D(O  44,C  40,C  21,H  42)   -115.1919         0.011702   
    257. D(O  44,C  40,C  21,H  41)    127.9215         0.011702   
    258. D(O  44,C  40,C  21,C  18)      5.7745         0.011702   
    259. D(C  43,C  40,C  21,H  42)     63.6630         0.011702   
    260. D(C  43,C  40,C  21,H  41)    -53.2236         0.011702   
    261. D(C  43,C  40,C  21,C  18)   -175.3706         0.011702   
    262. D(C  46,C  43,C  40,O  44)     -0.8968         0.013317   
    263. D(C  46,C  43,C  40,C  21)   -179.7615         0.013317   
    264. D(C  45,C  43,C  40,O  44)    178.6679         0.013317   
    265. D(C  45,C  43,C  40,C  21)     -0.1968         0.013317   
    266. D(H  51,C  45,C  43,C  46)    179.7702         0.024678   
    267. D(H  51,C  45,C  43,C  40)      0.2127         0.024678   
    268. D(C  49,C  45,C  43,C  46)     -0.1238         0.024678   
    269. D(C  49,C  45,C  43,C  40)   -179.6813         0.024678   
    270. D(H  50,C  46,C  43,C  45)   -179.9481         0.027528   
    271. D(H  50,C  46,C  43,C  40)     -0.3620         0.027528   
    272. D(C  47,C  46,C  43,C  45)     -0.0781         0.027528   
    273. D(C  47,C  46,C  43,C  40)    179.5081         0.027528   
    274. D(O  54,C  47,C  46,H  50)      0.0299         0.025352   
    275. D(O  54,C  47,C  46,C  43)   -179.8404         0.025352   
    276. D(C  48,C  47,C  46,H  50)   -179.9153         0.025352   
    277. D(C  48,C  47,C  46,C  43)      0.2144         0.025352   
    278. D(H  53,C  48,C  47,O  54)     -0.1862         0.024452   
    279. D(H  53,C  48,C  47,C  46)    179.7529         0.024452   
    280. D(C  49,C  48,C  47,O  54)    179.9127         0.024452   
    281. D(C  49,C  48,C  47,C  46)     -0.1482         0.024452   
    282. D(C  45,C  49,C  48,C  47)     -0.0523         0.028785   
    283. D(H  52,C  49,C  45,H  51)      0.2681         0.028343   
    284. D(H  52,C  49,C  45,C  43)   -179.8358         0.028343   
    285. D(C  48,C  49,C  45,H  51)   -179.7056         0.028343   
    286. D(C  48,C  49,C  45,C  43)      0.1905         0.028343   
    287. D(H  52,C  49,C  48,H  53)      0.0712         0.028785   
    288. D(H  52,C  49,C  48,C  47)    179.9739         0.028785   
    289. D(C  45,C  49,C  48,H  53)   -179.9550         0.028785   
    290. D(C  55,O  54,C  47,C  48)     -1.4050         0.031056   
    291. D(C  55,O  54,C  47,C  46)    178.6539         0.031056   
    292. D(H  57,C  55,O  54,C  47)    179.7588         0.035488   
    293. D(H  56,C  55,O  54,C  47)     -0.4852         0.035488   
    -----------------------------------------------------------------

Number of atoms                         .... 58
Number of degrees of freedom            .... 293

         *************************************************************
         *                GEOMETRY OPTIMIZATION CYCLE   1            *
         *************************************************************
---------------------------------
CARTESIAN COORDINATES (ANGSTROEM)
---------------------------------
  C     -0.368327    1.249822    0.475503
  C     -0.645943    0.112736   -0.278365
  C      0.384685   -0.744365   -0.633382
  C      1.689333   -0.490835   -0.260701
  C      1.981700    0.647200    0.495636
  C      0.947590    1.502505    0.858774
  O     -1.291676    2.159394    0.883955
  C     -2.646052    1.961331    0.528790
  H     -2.776737    1.966168   -0.557295
  H     -3.183860    2.802215    0.962661
  H     -3.033641    1.026767    0.944651
  H     -1.652008   -0.116236   -0.590362
  H      1.166214    2.381666    1.445075
  H      0.155370   -1.625729   -1.212814
  H      2.463378   -1.183227   -0.545372
  C      3.351929    0.995452    0.951960
  C      4.490743    0.221031    0.324562
  O      3.539597    1.855882    1.789275
  C      5.865358    0.774449    0.720102
  H      4.365821    0.232705   -0.758294
  H      4.408631   -0.813825    0.665398
  C      6.979957   -0.106856    0.138728
  C      6.037862    2.201767    0.262280
  H      5.943641    0.758199    1.811295
  C      5.905719    2.543573   -1.081357
  C      6.351732    3.200745    1.176687
  C      6.532976    4.507447    0.769091
  C      6.079586    3.846451   -1.498913
  H      5.663156    1.790186   -1.816203
  C      6.398090    4.842821   -0.577047
  H      5.976059    4.117413   -2.539131
  H      6.457851    2.946955    2.219782
  H      6.777532    5.274539    1.486520
  C      6.581793    6.222693   -1.065916
  O      6.434887    6.565823   -2.222274
  O      6.935579    7.080441   -0.100981
  C      7.129655    8.437287   -0.490789
  H      7.505635    8.948002    0.390870
  H      6.183932    8.873053   -0.817562
  H      7.846864    8.495411   -1.311496
  C      8.326275    0.172904    0.771017
  H      7.059894    0.051019   -0.937164
  H      6.749648   -1.160568    0.313755
  C      9.493873   -0.549958    0.207632
  O      8.451046    0.935887    1.710124
  C      9.407548   -1.460530   -0.854588
  C     10.731944   -0.303878    0.784122
  C     11.887609   -0.945448    0.328049
  C     11.786906   -1.852206   -0.737738
  C     10.551742   -2.092678   -1.309114
  H     10.805902    0.395475    1.603080
  H      8.464344   -1.679596   -1.324238
  H     10.481670   -2.791318   -2.129151
  H     12.656616   -2.362142   -1.118237
  O     13.024998   -0.618828    0.977615
  C     14.225104   -1.136342    0.714184
  H     14.390026   -1.874434   -0.044573
  H     15.012072   -0.753682    1.329844

----------------------------
CARTESIAN COORDINATES (A.U.)
----------------------------
  NO LB      ZA    FRAG     MASS         X           Y           Z
   0 C     6.0000    0    12.011   -0.696038    2.361821    0.898570
   1 C     6.0000    0    12.011   -1.220655    0.213039   -0.526034
   2 C     6.0000    0    12.011    0.726949   -1.406645   -1.196919
   3 C     6.0000    0    12.011    3.192377   -0.927543   -0.492654
   4 C     6.0000    0    12.011    3.744870    1.223030    0.936617
   5 C     6.0000    0    12.011    1.790686    2.839322    1.622847
   6 O     8.0000    0    15.999   -2.440913    4.080664    1.670433
   7 C     6.0000    0    12.011   -5.000313    3.706378    0.999269
   8 H     1.0000    0     1.008   -5.247273    3.715520   -1.053135
   9 H     1.0000    0     1.008   -6.016624    5.295419    1.819166
  10 H     1.0000    0     1.008   -5.732750    1.940309    1.785132
  11 H     1.0000    0     1.008   -3.121842   -0.219655   -1.115622
  12 H     1.0000    0     1.008    2.203825    4.500696    2.730796
  13 H     1.0000    0     1.008    0.293606   -3.072183   -2.291887
  14 H     1.0000    0     1.008    4.655110   -2.235975   -1.030604
  15 C     6.0000    0    12.011    6.334227    1.881132    1.798943
  16 C     6.0000    0    12.011    8.486274    0.417689    0.613333
  17 O     8.0000    0    15.999    6.688869    3.507109    3.381239
  18 C     6.0000    0    12.011   11.083921    1.463497    1.360795
  19 H     1.0000    0     1.008    8.250205    0.439748   -1.432968
  20 H     1.0000    0     1.008    8.331106   -1.537906    1.257420
  21 C     6.0000    0    12.011   13.190207   -0.201929    0.262159
  22 C     6.0000    0    12.011   11.409906    4.160737    0.495637
  23 H     1.0000    0     1.008   11.231853    1.432789    3.422852
  24 C     6.0000    0    12.011   11.160192    4.806656   -2.043469
  25 C     6.0000    0    12.011   12.003034    6.048531    2.223617
  26 C     6.0000    0    12.011   12.345536    8.517840    1.453371
  27 C     6.0000    0    12.011   11.488753    7.268738   -2.832535
  28 H     1.0000    0     1.008   10.701814    3.382961   -3.432126
  29 C     6.0000    0    12.011   12.090638    9.151605   -1.090462
  30 H     1.0000    0     1.008   11.293114    7.780783   -4.798262
  31 H     1.0000    0     1.008   12.203570    5.568939    4.194781
  32 H     1.0000    0     1.008   12.807678    9.967434    2.809116
  33 C     6.0000    0    12.011   12.437787   11.759185   -2.014289
  34 O     8.0000    0    15.999   12.160174   12.407608   -4.199489
  35 O     8.0000    0    15.999   13.106345   13.380094   -0.190826
  36 C     6.0000    0    12.011   13.473095   15.944161   -0.927456
  37 H     1.0000    0     1.008   14.183595   16.909274    0.738637
  38 H     1.0000    0     1.008   11.685938   16.767641   -1.544969
  39 H     1.0000    0     1.008   14.828423   16.054000   -2.478368
  40 C     6.0000    0    12.011   15.734379    0.326741    1.457012
  41 H     1.0000    0     1.008   13.341267    0.096411   -1.770984
  42 H     1.0000    0     1.008   12.754985   -2.193156    0.592912
  43 C     6.0000    0    12.011   17.940820   -1.039269    0.392367
  44 O     8.0000    0    15.999   15.970162    1.768569    3.231667
  45 C     6.0000    0    12.011   17.777689   -2.760001   -1.614938
  46 C     6.0000    0    12.011   20.280436   -0.574246    1.481776
  47 C     6.0000    0    12.011   22.464325   -1.786638    0.619923
  48 C     6.0000    0    12.011   22.274023   -3.500161   -1.394122
  49 C     6.0000    0    12.011   19.939903   -3.954587   -2.473868
  50 H     1.0000    0     1.008   20.420196    0.747339    3.029381
  51 H     1.0000    0     1.008   15.995292   -3.173976   -2.502447
  52 H     1.0000    0     1.008   19.807485   -5.274826   -4.023513
  53 H     1.0000    0     1.008   23.917539   -4.463802   -2.113162
  54 O     8.0000    0    15.999   24.613679   -1.169415    1.847425
  55 C     6.0000    0    12.011   26.881552   -2.147376    1.349612
  56 H     1.0000    0     1.008   27.193209   -3.542168   -0.084232
  57 H     1.0000    0     1.008   28.368704   -1.424252    2.513042

--------------------------------
INTERNAL COORDINATES (ANGSTROEM)
--------------------------------
 C      0   0   0     0.000000000000     0.00000000     0.00000000
 C      1   0   0     1.392247194660     0.00000000     0.00000000
 C      2   1   0     1.386669083273   119.68596075     0.00000000
 C      3   2   1     1.380317225646   121.32157408   359.62738733
 C      4   3   2     1.397371230663   119.56965964     0.34830112
 C      5   4   3     1.390251399658   119.12966299     0.04946520
 O      1   2   3     1.358943516990   125.02395142   180.10389942
 C      7   1   2     1.414109476744   118.78489422   359.92262775
 H      8   7   1     1.093930626053   111.29410020   298.46007520
 H      8   7   1     1.088378604854   105.36281666   179.89861351
 H      8   7   1     1.093880471681   111.31766763    61.31680568
 H      2   1   3     1.077931652932   121.08564860   179.83258639
 H      6   5   4     1.079106016892   119.50132087   179.83604415
 H      3   2   1     1.079412390817   118.96195474   179.62630391
 H      4   3   2     1.076842930451   119.33589213   179.38944562
 C      5   4   3     1.485609932374   123.37678067   179.46037276
 C     16   5   4     1.513358366382   116.53636973    12.46592302
 O     16   5   4     1.215177318561   121.33733445   192.69732462
 C     17  16   5     1.533717892094   112.51228865   172.49570684
 H     17  16   5     1.090100180870   108.66914729    49.42337773
 H     17  16   5     1.092629456275   107.38505569   292.66582056
 C     19  17  16     1.535260047969   110.23628888   175.96503401
 C     19  17  16     1.508838923518   111.44174067   298.64594614
 H     19  17  16     1.094118617560   108.41958244    57.33882160
 C     23  19  17     1.392714339534   120.93402707   302.86036514
 C     23  19  17     1.390184132085   120.39774238   123.77386925
 C     26  23  19     1.380743957374   121.03253710   178.98499086
 C     25  23  19     1.379156628050   120.79591559   180.77288507
 H     25  23  19     1.080012533161   120.43340922     0.85686732
 C     27  26  23     1.393828649435   120.00713246     0.17932132
 H     28  25  23     1.079903434012   121.10348426   180.14276340
 H     26  23  19     1.078757461028   119.28592283   359.19190983
 H     27  26  23     1.078398225267   120.43494649   180.08148033
 C     30  27  26     1.475393640990   122.20815549   180.03797696
 O     34  30  27     1.215106224453   124.35917209   182.29200140
 O     34  30  27     1.338654752777   113.16199211     2.44694257
 C     36  34  30     1.425007606871   116.67431256   180.16172182
 H     37  36  34     1.086054162810   105.83319490   185.65310863
 H     37  36  34     1.091358914179   110.12540652    65.83502829
 H     37  36  34     1.091479597803   110.23576909   305.72043890
 C     22  19  17     1.513481918000   112.42677126   194.48204050
 H     22  19  17     1.090348334145   110.10663396    73.14798006
 H     22  19  17     1.092696486056   109.86993281   314.01305063
 C     41  22  19     1.484323961735   116.81752350   184.62944244
 O     41  22  19     1.216401545299   121.98671888     5.77454090
 C     44  41  22     1.401750758560   123.74720114   359.80318095
 C     44  41  22     1.387702115230   117.24290249   180.23847124
 C     47  44  41     1.398275782422   121.36656834   179.50805992
 C     48  47  44     1.402944003310   119.01315607     0.21439531
 C     49  48  47     1.382000981274   119.38650070   359.85177657
 H     47  44  41     1.079469572309   119.41834985   359.63802056
 H     46  44  41     1.076194644803   121.12436041     0.21274709
 H     50  49  48     1.079568741940   118.99057830   179.97387910
 H     49  48  47     1.077595693681   121.07519338   179.75290948
 O     48  47  44     1.349915340464   115.36647632   180.15959916
 C     55  48  47     1.333219123411   124.71122428   178.65392670
 H     56  55  48     1.071303922492   123.08994930   359.51481843
 H     56  55  48     1.069945796575   114.17726355   179.75884027

---------------------------
INTERNAL COORDINATES (A.U.)
---------------------------
 C      0   0   0     0.000000000000     0.00000000     0.00000000
 C      1   0   0     2.630965908627     0.00000000     0.00000000
 C      2   1   0     2.620424805761   119.68596075     0.00000000
 C      3   2   1     2.608421534406   121.32157408   359.62738733
 C      4   3   2     2.640648933374   119.56965964     0.34830112
 C      5   4   3     2.627194402654   119.12966299     0.04946520
 O      1   2   3     2.568031078579   125.02395142   180.10389942
 C      7   1   2     2.672279634430   118.78489422   359.92262775
 H      8   7   1     2.067229292748   111.29410020   298.46007520
 H      8   7   1     2.056737493193   105.36281666   179.89861351
 H      8   7   1     2.067134514721   111.31766763    61.31680568
 H      2   1   3     2.036995615126   121.08564860   179.83258639
 H      6   5   4     2.039214841393   119.50132087   179.83604415
 H      3   2   1     2.039793804206   118.96195474   179.62630391
 H      4   3   2     2.034938227801   119.33589213   179.38944562
 C      5   4   3     2.807395914020   123.37678067   179.46037276
 C     16   5   4     2.859832854941   116.53636973    12.46592302
 O     16   5   4     2.296352336233   121.33733445   192.69732462
 C     17  16   5     2.898306782753   112.51228865   172.49570684
 H     17  16   5     2.059990800382   108.66914729    49.42337773
 H     17  16   5     2.064770438215   107.38505569   292.66582056
 C     19  17  16     2.901221035013   110.23628888   175.96503401
 C     19  17  16     2.851292345649   111.44174067   298.64594614
 H     19  17  16     2.067584545212   108.41958244    57.33882160
 C     23  19  17     2.631848684505   120.93402707   302.86036514
 C     23  19  17     2.627067285363   120.39774238   123.77386925
 C     26  23  19     2.609227940503   121.03253710   178.98499086
 C     25  23  19     2.606228322796   120.79591559   180.77288507
 H     25  23  19     2.040927908876   120.43340922     0.85686732
 C     27  26  23     2.633954425046   120.00713246     0.17932132
 H     28  25  23     2.040721741365   121.10348426   180.14276340
 H     26  23  19     2.038556166268   119.28592283   359.19190983
 H     27  26  23     2.037877309061   120.43494649   180.08148033
 C     30  27  26     2.788089921200   122.20815549   180.03797696
 O     34  30  27     2.296217987838   124.35917209   182.29200140
 O     34  30  27     2.529690870620   113.16199211     2.44694257
 C     36  34  30     2.692874115741   116.67431256   180.16172182
 H     37  36  34     2.052344934316   105.83319490   185.65310863
 H     37  36  34     2.062369461612   110.12540652    65.83502829
 H     37  36  34     2.062597520611   110.23576909   305.72043890
 C     22  19  17     2.860066333662   112.42677126   194.48204050
 H     22  19  17     2.060459742111   110.10663396    73.14798006
 H     22  19  17     2.064897106145   109.86993281   314.01305063
 C     41  22  19     2.804965781697   116.81752350   184.62944244
 O     41  22  19     2.298665789494   121.98671888     5.77454090
 C     44  41  22     2.648925041695   123.74720114   359.80318095
 C     44  41  22     2.622376953248   117.24290249   180.23847124
 C     47  44  41     2.642358288473   121.36656834   179.50805992
 C     48  47  44     2.651179947484   119.01315607     0.21439531
 C     49  48  47     2.611603371418   119.38650070   359.85177657
 H     47  44  41     2.039901861566   119.41834985   359.63802056
 H     46  44  41     2.033713145471   121.12436041     0.21274709
 H     50  49  48     2.040089265009   118.99057830   179.97387910
 H     49  48  47     2.036360744150   121.07519338   179.75290948
 O     48  47  44     2.550970297457   115.36647632   180.15959916
 C     55  48  47     2.519419019753   124.71122428   178.65392670
 H     56  55  48     2.024471019706   123.08994930   359.51481843
 H     56  55  48     2.021904533666   114.17726355   179.75884027

---------------------
BASIS SET INFORMATION
---------------------
There are 3 groups of distinct atoms

 Group   1 Type C   : 11s6p2d1f contracted to 5s3p2d1f pattern {62111/411/11/1}
 Group   2 Type O   : 11s6p2d1f contracted to 5s3p2d1f pattern {62111/411/11/1}
 Group   3 Type H   : 5s1p contracted to 3s1p pattern {311/1}

Atom   0C    basis set group =>   1
Atom   1C    basis set group =>   1
Atom   2C    basis set group =>   1
Atom   3C    basis set group =>   1
Atom   4C    basis set group =>   1
Atom   5C    basis set group =>   1
Atom   6O    basis set group =>   2
Atom   7C    basis set group =>   1
Atom   8H    basis set group =>   3
Atom   9H    basis set group =>   3
Atom  10H    basis set group =>   3
Atom  11H    basis set group =>   3
Atom  12H    basis set group =>   3
Atom  13H    basis set group =>   3
Atom  14H    basis set group =>   3
Atom  15C    basis set group =>   1
Atom  16C    basis set group =>   1
Atom  17O    basis set group =>   2
Atom  18C    basis set group =>   1
Atom  19H    basis set group =>   3
Atom  20H    basis set group =>   3
Atom  21C    basis set group =>   1
Atom  22C    basis set group =>   1
Atom  23H    basis set group =>   3
Atom  24C    basis set group =>   1
Atom  25C    basis set group =>   1
Atom  26C    basis set group =>   1
Atom  27C    basis set group =>   1
Atom  28H    basis set group =>   3
Atom  29C    basis set group =>   1
Atom  30H    basis set group =>   3
Atom  31H    basis set group =>   3
Atom  32H    basis set group =>   3
Atom  33C    basis set group =>   1
Atom  34O    basis set group =>   2
Atom  35O    basis set group =>   2
Atom  36C    basis set group =>   1
Atom  37H    basis set group =>   3
Atom  38H    basis set group =>   3
Atom  39H    basis set group =>   3
Atom  40C    basis set group =>   1
Atom  41H    basis set group =>   3
Atom  42H    basis set group =>   3
Atom  43C    basis set group =>   1
Atom  44O    basis set group =>   2
Atom  45C    basis set group =>   1
Atom  46C    basis set group =>   1
Atom  47C    basis set group =>   1
Atom  48C    basis set group =>   1
Atom  49C    basis set group =>   1
Atom  50H    basis set group =>   3
Atom  51H    basis set group =>   3
Atom  52H    basis set group =>   3
Atom  53H    basis set group =>   3
Atom  54O    basis set group =>   2
Atom  55C    basis set group =>   1
Atom  56H    basis set group =>   3
Atom  57H    basis set group =>   3
---------------------------------
AUXILIARY/J BASIS SET INFORMATION
---------------------------------
There are 3 groups of distinct atoms

 Group   1 Type C   : 12s5p4d2f1g contracted to 6s4p3d1f1g pattern {711111/2111/211/2/1}
 Group   2 Type O   : 12s5p4d2f1g contracted to 6s4p3d1f1g pattern {711111/2111/211/2/1}
 Group   3 Type H   : 5s2p1d contracted to 3s1p1d pattern {311/2/1}

Atom   0C    basis set group =>   1
Atom   1C    basis set group =>   1
Atom   2C    basis set group =>   1
Atom   3C    basis set group =>   1
Atom   4C    basis set group =>   1
Atom   5C    basis set group =>   1
Atom   6O    basis set group =>   2
Atom   7C    basis set group =>   1
Atom   8H    basis set group =>   3
Atom   9H    basis set group =>   3
Atom  10H    basis set group =>   3
Atom  11H    basis set group =>   3
Atom  12H    basis set group =>   3
Atom  13H    basis set group =>   3
Atom  14H    basis set group =>   3
Atom  15C    basis set group =>   1
Atom  16C    basis set group =>   1
Atom  17O    basis set group =>   2
Atom  18C    basis set group =>   1
Atom  19H    basis set group =>   3
Atom  20H    basis set group =>   3
Atom  21C    basis set group =>   1
Atom  22C    basis set group =>   1
Atom  23H    basis set group =>   3
Atom  24C    basis set group =>   1
Atom  25C    basis set group =>   1
Atom  26C    basis set group =>   1
Atom  27C    basis set group =>   1
Atom  28H    basis set group =>   3
Atom  29C    basis set group =>   1
Atom  30H    basis set group =>   3
Atom  31H    basis set group =>   3
Atom  32H    basis set group =>   3
Atom  33C    basis set group =>   1
Atom  34O    basis set group =>   2
Atom  35O    basis set group =>   2
Atom  36C    basis set group =>   1
Atom  37H    basis set group =>   3
Atom  38H    basis set group =>   3
Atom  39H    basis set group =>   3
Atom  40C    basis set group =>   1
Atom  41H    basis set group =>   3
Atom  42H    basis set group =>   3
Atom  43C    basis set group =>   1
Atom  44O    basis set group =>   2
Atom  45C    basis set group =>   1
Atom  46C    basis set group =>   1
Atom  47C    basis set group =>   1
Atom  48C    basis set group =>   1
Atom  49C    basis set group =>   1
Atom  50H    basis set group =>   3
Atom  51H    basis set group =>   3
Atom  52H    basis set group =>   3
Atom  53H    basis set group =>   3
Atom  54O    basis set group =>   2
Atom  55C    basis set group =>   1
Atom  56H    basis set group =>   3
Atom  57H    basis set group =>   3
[file orca_main/mainfcts.cpp, line 624]: Error : multiplicity (1) is odd and number of electrons (235) is odd -> impossible

[file orca_main/mainfcts.cpp, line 624]: Error : multiplicity (1) is odd and number of electrons (235) is odd -> impossible

‘Diketon_freqopt.gbw’ -> ‘/home/rothe/Calc/Li_Path/THF/Diketon/Diketon_freqopt.gbw’
‘Diketon_freqopt.job’ -> ‘/home/rothe/Calc/Li_Path/THF/Diketon/Diketon_freqopt.job’
‘Diketon_freqopt.opt’ -> ‘/home/rothe/Calc/Li_Path/THF/Diketon/Diketon_freqopt.opt’
‘Diketon_freqopt_property.txt’ -> ‘/home/rothe/Calc/Li_Path/THF/Diketon/Diketon_freqopt_property.txt’
‘Diketon_freqopt.xyz’ -> ‘/home/rothe/Calc/Li_Path/THF/Diketon/Diketon_freqopt.xyz’
