! Job execution by suborca V 5.02 !
Job started from clu.thch.uni-bonn.de, running /software/cluster/orca_5_0_2_linux_x86-64_openmpi411/orca from /software/cluster/orca_5_0_2_linux_x86-64_openmpi411 on boar230 in /tmp1/rothe/LiCl_freqopt__kIPrSX
Going to copy the following really necessary files:  

                                 *****************
                                 * O   R   C   A *
                                 *****************

                                            #,                                       
                                            ###                                      
                                            ####                                     
                                            #####                                    
                                            ######                                   
                                           ########,                                 
                                     ,,################,,,,,                         
                               ,,#################################,,                 
                          ,,##########################################,,             
                       ,#########################################, ''#####,          
                    ,#############################################,,   '####,        
                  ,##################################################,,,,####,       
                ,###########''''           ''''###############################       
              ,#####''   ,,,,##########,,,,          '''####'''          '####       
            ,##' ,,,,###########################,,,                        '##       
           ' ,,###''''                  '''############,,,                           
         ,,##''                                '''############,,,,        ,,,,,,###''
      ,#''                                            '''#######################'''  
     '                                                          ''''####''''         
             ,#######,   #######,   ,#######,      ##                                
            ,#'     '#,  ##    ##  ,#'     '#,    #''#        ######   ,####,        
            ##       ##  ##   ,#'  ##            #'  '#       #        #'  '#        
            ##       ##  #######   ##           ,######,      #####,   #    #        
            '#,     ,#'  ##    ##  '#,     ,#' ,#      #,         ##   #,  ,#        
             '#######'   ##     ##  '#######'  #'      '#     #####' # '####'        



                  #######################################################
                  #                        -***-                        #
                  #          Department of theory and spectroscopy      #
                  #    Directorship and core code : Frank Neese         #
                  #        Max Planck Institute fuer Kohlenforschung    #
                  #                Kaiser Wilhelm Platz 1               #
                  #                 D-45470 Muelheim/Ruhr               #
                  #                      Germany                        #
                  #                                                     #
                  #                  All rights reserved                #
                  #                        -***-                        #
                  #######################################################


                         Program Version 5.0.2 -  RELEASE  -


 With contributions from (in alphabetic order):
   Daniel Aravena         : Magnetic Suceptibility
   Michael Atanasov       : Ab Initio Ligand Field Theory (pilot matlab implementation)
   Alexander A. Auer      : GIAO ZORA, VPT2 properties, NMR spectrum
   Ute Becker             : Parallelization
   Giovanni Bistoni       : ED, misc. LED, open-shell LED, HFLD
   Martin Brehm           : Molecular dynamics
   Dmytro Bykov           : SCF Hessian
   Vijay G. Chilkuri      : MRCI spin determinant printing, contributions to CSF-ICE
   Dipayan Datta          : RHF DLPNO-CCSD density
   Achintya Kumar Dutta   : EOM-CC, STEOM-CC
   Dmitry Ganyushin       : Spin-Orbit,Spin-Spin,Magnetic field MRCI
   Miquel Garcia          : C-PCM and meta-GGA Hessian, CC/C-PCM, Gaussian charge scheme
   Yang Guo               : DLPNO-NEVPT2, F12-NEVPT2, CIM, IAO-localization
   Andreas Hansen         : Spin unrestricted coupled pair/coupled cluster methods
   Benjamin Helmich-Paris : MC-RPA, TRAH-SCF, COSX integrals
   Lee Huntington         : MR-EOM, pCC
   Robert Izsak           : Overlap fitted RIJCOSX, COSX-SCS-MP3, EOM
   Marcus Kettner         : VPT2
   Christian Kollmar      : KDIIS, OOCD, Brueckner-CCSD(T), CCSD density, CASPT2, CASPT2-K
   Simone Kossmann        : Meta GGA functionals, TD-DFT gradient, OOMP2, MP2 Hessian
   Martin Krupicka        : Initial AUTO-CI
   Lucas Lang             : DCDCAS
   Marvin Lechner         : AUTO-CI (C++ implementation), FIC-MRCC
   Dagmar Lenk            : GEPOL surface, SMD
   Dimitrios Liakos       : Extrapolation schemes; Compound Job, initial MDCI parallelization
   Dimitrios Manganas     : Further ROCIS development; embedding schemes
   Dimitrios Pantazis     : SARC Basis sets
   Anastasios Papadopoulos: AUTO-CI, single reference methods and gradients
   Taras Petrenko         : DFT Hessian,TD-DFT gradient, ASA, ECA, R-Raman, ABS, FL, XAS/XES, NRVS
   Peter Pinski           : DLPNO-MP2, DLPNO-MP2 Gradient
   Christoph Reimann      : Effective Core Potentials
   Marius Retegan         : Local ZFS, SOC
   Christoph Riplinger    : Optimizer, TS searches, QM/MM, DLPNO-CCSD(T), (RO)-DLPNO pert. Triples
   Tobias Risthaus        : Range-separated hybrids, TD-DFT gradient, RPA, STAB
   Michael Roemelt        : Original ROCIS implementation
   Masaaki Saitow         : Open-shell DLPNO-CCSD energy and density
   Barbara Sandhoefer     : DKH picture change effects
   Avijit Sen             : IP-ROCIS
   Kantharuban Sivalingam : CASSCF convergence, NEVPT2, FIC-MRCI
   Bernardo de Souza      : ESD, SOC TD-DFT
   Georgi Stoychev        : AutoAux, RI-MP2 NMR, DLPNO-MP2 response
   Willem Van den Heuvel  : Paramagnetic NMR
   Boris Wezisla          : Elementary symmetry handling
   Frank Wennmohs         : Technical directorship


 We gratefully acknowledge several colleagues who have allowed us to
 interface, adapt or use parts of their codes:
   Stefan Grimme, W. Hujo, H. Kruse, P. Pracht,  : VdW corrections, initial TS optimization,
                  C. Bannwarth, S. Ehlert          DFT functionals, gCP, sTDA/sTD-DF
   Ed Valeev, F. Pavosevic, A. Kumar             : LibInt (2-el integral package), F12 methods
   Garnet Chan, S. Sharma, J. Yang, R. Olivares  : DMRG
   Ulf Ekstrom                                   : XCFun DFT Library
   Mihaly Kallay                                 : mrcc  (arbitrary order and MRCC methods)
   Jiri Pittner, Ondrej Demel                    : Mk-CCSD
   Frank Weinhold                                : gennbo (NPA and NBO analysis)
   Christopher J. Cramer and Donald G. Truhlar   : smd solvation model
   Lars Goerigk                                  : TD-DFT with DH, B97 family of functionals
   V. Asgeirsson, H. Jonsson                     : NEB implementation
   FAccTs GmbH                                   : IRC, NEB, NEB-TS, DLPNO-Multilevel, CI-OPT
                                                   MM, QMMM, 2- and 3-layer-ONIOM, Crystal-QMMM,
                                                   LR-CPCM, SF, NACMEs, symmetry and pop. for TD-DFT,
                                                   nearIR, NL-DFT gradient (VV10), updates on ESD,
                                                   ML-optimized integration grids
   S Lehtola, MJT Oliveira, MAL Marques          : LibXC Library
   Liviu Ungur et al                             : ANISO software


 Your calculation uses the libint2 library for the computation of 2-el integrals
 For citations please refer to: http://libint.valeyev.net

 Your ORCA version has been built with support for libXC version: 5.1.0
 For citations please refer to: https://tddft.org/programs/libxc/

 This ORCA versions uses:
   CBLAS   interface :  Fast vector & matrix operations
   LAPACKE interface :  Fast linear algebra routines
   SCALAPACK package :  Parallel linear algebra routines
   Shared memory     :  Shared parallel matrices
   BLAS/LAPACK       :  OpenBLAS 0.3.15  USE64BITINT DYNAMIC_ARCH NO_AFFINITY Barcelona SINGLE_THREADED
        Core in use  :  Barcelona
   Copyright (c) 2011-2014, The OpenBLAS Project


Your calculation utilizes the atom-pairwise dispersion correction
with the Becke-Johnson damping scheme (D3BJ)
Cite in your paper:
S.Grimme, S.Ehrlich, L.Goerigk, J Comput Chem, (2011), 32, 1456–1465 
S.Grimme, J.Antony, S.Ehrlich and H.Krieg, J.Chem.Phys., 132, (2010), 154104 
   

================================================================================

----- Orbital basis set information -----
Your calculation utilizes the basis: def2-TZVP
   F. Weigend and R. Ahlrichs, Phys. Chem. Chem. Phys. 7, 3297 (2005).

----- AuxJ basis set information -----
Your calculation utilizes the auxiliary basis: def2/J
   F. Weigend, Phys. Chem. Chem. Phys. 8, 1057 (2006).

================================================================================
                                        WARNINGS
                       Please study these warnings very carefully!
================================================================================


WARNING: Geometry Optimization
  ===> : Switching off AutoStart
         For restart on a previous wavefunction, please use MOREAD

INFO   : the flag for use of the SHARK integral package has been found!

================================================================================
                                       INPUT FILE
================================================================================
NAME = LiCl_freqopt.inp
|  1> ! TPSS D3BJ def2-TZVP RI def2/J CPCM(THF)
|  2> ! Opt numfreq Pal2
|  3> 
|  4> * xyz 0 1
|  5> Cl      -1.4567325161      0.5417425198      0.0000000000                 
|  6> Li      -0.1267325161      0.5417425198      0.0000000000                 
|  7> *
|  8> 
|  9>                          ****END OF INPUT****
================================================================================

                       *****************************
                       * Geometry Optimization Run *
                       *****************************

Geometry optimization settings:
Update method            Update   .... BFGS
Choice of coordinates    CoordSys .... Z-matrix Internals
Initial Hessian          InHess   .... Almoef's Model

Convergence Tolerances:
Energy Change            TolE     ....  5.0000e-06 Eh
Max. Gradient            TolMAXG  ....  3.0000e-04 Eh/bohr
RMS Gradient             TolRMSG  ....  1.0000e-04 Eh/bohr
Max. Displacement        TolMAXD  ....  4.0000e-03 bohr
RMS Displacement         TolRMSD  ....  2.0000e-03 bohr
Strict Convergence                ....  False
------------------------------------------------------------------------------
                        ORCA OPTIMIZATION COORDINATE SETUP
------------------------------------------------------------------------------

The optimization will be done in new redundant internal coordinates
Making redundant internal coordinates   ...  (new redundants) done
Evaluating the initial hessian          ...  (Almloef) done
Evaluating the coordinates              ...  done
Calculating the B-matrix                .... done
Calculating the G-matrix                .... done
Diagonalizing the G-matrix              .... done
The first mode is                       ....    0
The number of degrees of freedom        ....    1

    -----------------------------------------------------------------
                    Redundant Internal Coordinates


    -----------------------------------------------------------------
         Definition                    Initial Value    Approx d2E/dq
    -----------------------------------------------------------------
      1. B(Li  1,Cl  0)                  1.3300         8.482000   
    -----------------------------------------------------------------

Number of atoms                         .... 2
Number of degrees of freedom            .... 1

         *************************************************************
         *                GEOMETRY OPTIMIZATION CYCLE   1            *
         *************************************************************
---------------------------------
CARTESIAN COORDINATES (ANGSTROEM)
---------------------------------
  Cl    -1.456733    0.541743    0.000000
  Li    -0.126733    0.541743    0.000000

----------------------------
CARTESIAN COORDINATES (A.U.)
----------------------------
  NO LB      ZA    FRAG     MASS         X           Y           Z
   0 Cl   17.0000    0    35.453   -2.752826    1.023745    0.000000
   1 Li    3.0000    0     6.941   -0.239490    1.023745    0.000000

--------------------------------
INTERNAL COORDINATES (ANGSTROEM)
--------------------------------
 Cl     0   0   0     0.000000000000     0.00000000     0.00000000
 Li     1   0   0     1.330000000000     0.00000000     0.00000000

---------------------------
INTERNAL COORDINATES (A.U.)
---------------------------
 Cl     0   0   0     0.000000000000     0.00000000     0.00000000
 Li     1   0   0     2.513335758115     0.00000000     0.00000000

---------------------
BASIS SET INFORMATION
---------------------
There are 2 groups of distinct atoms

 Group   1 Type Cl  : 14s9p3d1f contracted to 5s5p2d1f pattern {73211/51111/21/1}
 Group   2 Type Li  : 11s3p contracted to 5s3p pattern {62111/111}

Atom   0Cl   basis set group =>   1
Atom   1Li   basis set group =>   2
---------------------------------
AUXILIARY/J BASIS SET INFORMATION
---------------------------------
There are 2 groups of distinct atoms

 Group   1 Type Cl  : 14s5p5d2f1g contracted to 8s4p3d1f1g pattern {71111111/2111/311/2/1}
 Group   2 Type Li  : 12s5p4d2f1g contracted to 6s4p3d1f1g pattern {711111/2111/211/2/1}

Atom   0Cl   basis set group =>   1
Atom   1Li   basis set group =>   2


           ************************************************************
           *        Program running with 2 parallel MPI-processes     *
           *              working on a common directory               *
           ************************************************************
------------------------------------------------------------------------------
                           ORCA GTO INTEGRAL CALCULATION
                           -- RI-GTO INTEGRALS CHOSEN --
------------------------------------------------------------------------------
------------------------------------------------------------------------------
                   ___                                                        
                  /   \      - P O W E R E D   B Y -                         
                 /     \                                                     
                 |  |  |   _    _      __       _____    __    __             
                 |  |  |  | |  | |    /  \     |  _  \  |  |  /  |          
                  \  \/   | |  | |   /    \    | | | |  |  | /  /          
                 / \  \   | |__| |  /  /\  \   | |_| |  |  |/  /          
                |  |  |   |  __  | /  /__\  \  |    /   |      \           
                |  |  |   | |  | | |   __   |  |    \   |  |\   \          
                \     /   | |  | | |  |  |  |  | |\  \  |  | \   \       
                 \___/    |_|  |_| |__|  |__|  |_| \__\ |__|  \__/        
                                                                              
                      - O R C A' S   B I G   F R I E N D -                    
                                      &                                       
                       - I N T E G R A L  F E E D E R -                       
                                                                              
 v1 FN, 2020, v2 2021                                                         
------------------------------------------------------------------------------


Reading SHARK input file LiCl_freqopt.SHARKINP.tmp ... ok
----------------------
SHARK INTEGRAL PACKAGE
----------------------

Number of atoms                             ...      2
Number of basis functions                   ...     51
Number of shells                            ...     21
Maximum angular momentum                    ...      3
Integral batch strategy                     ... SHARK/LIBINT Hybrid
RI-J (if used) integral strategy            ... SPLIT-RIJ (Revised 2003 algorithm where possible)
Printlevel                                  ...      1
Contraction scheme used                     ... SEGMENTED contraction
Coulomb Range Separation                    ... NOT USED
Exchange Range Separation                   ... NOT USED
Finite Nucleus Model                        ... NOT USED
Auxiliary Coulomb fitting basis             ... AVAILABLE
   # of basis functions in Aux-J            ...    100
   # of shells in Aux-J                     ...     32
   Maximum angular momentum in Aux-J        ...      4
Auxiliary J/K fitting basis                 ... NOT available
Auxiliary Correlation fitting basis         ... NOT available
Auxiliary 'external' fitting basis          ... NOT available
Integral threshold                          ...     2.500000e-11
Primitive cut-off                           ...     2.500000e-12
Primitive pair pre-selection threshold      ...     2.500000e-12

Calculating pre-screening integrals         ... done (  0.1 sec) Dimension = 21
Organizing shell pair data                  ... done (  0.0 sec)
Shell pair information
Total number of shell pairs                 ...       231
Shell pairs after pre-screening             ...       230
Total number of primitive shell pairs       ...       913
Primitive shell pairs kept                  ...       825
          la=0 lb=0:     54 shell pairs
          la=1 lb=0:     80 shell pairs
          la=1 lb=1:     36 shell pairs
          la=2 lb=0:     20 shell pairs
          la=2 lb=1:     16 shell pairs
          la=2 lb=2:      3 shell pairs
          la=3 lb=0:     10 shell pairs
          la=3 lb=1:      8 shell pairs
          la=3 lb=2:      2 shell pairs
          la=3 lb=3:      1 shell pairs

Calculating one electron integrals          ... done (  0.0 sec)
Calculating RI/J V-Matrix + Cholesky decomp.... done (  0.0 sec)
Calculating Nuclear repulsion               ... done (  0.0 sec) ENN=     20.291757611504 Eh

SHARK setup successfully completed in   0.3 seconds

Maximum memory used throughout the entire GTOINT-calculation: 15.3 MB


           ************************************************************
           *        Program running with 2 parallel MPI-processes     *
           *              working on a common directory               *
           ************************************************************
-------------------------------------------------------------------------------
                                 ORCA SCF
-------------------------------------------------------------------------------

------------
SCF SETTINGS
------------
Hamiltonian:
 Density Functional     Method          .... DFT(GTOs)
 Exchange Functional    Exchange        .... TPSS
 Correlation Functional Correlation     .... TPSS
 LDA part of GGA corr.  LDAOpt          .... PW91-LDA
 Gradients option       PostSCFGGA      .... off
   Density functional embedding theory  .... OFF
   NL short-range parameter             ....  5.000000
 RI-approximation to the Coulomb term is turned on
   Number of AuxJ basis functions       .... 100


General Settings:
 Integral files         IntName         .... LiCl_freqopt
 Hartree-Fock type      HFTyp           .... RHF
 Total Charge           Charge          ....    0
 Multiplicity           Mult            ....    1
 Number of Electrons    NEL             ....   20
 Basis Dimension        Dim             ....   51
 Nuclear Repulsion      ENuc            ....     20.2917576115 Eh

Convergence Acceleration:
 DIIS                   CNVDIIS         .... on
   Start iteration      DIISMaxIt       ....    12
   Startup error        DIISStart       ....  0.200000
   # of expansion vecs  DIISMaxEq       ....     5
   Bias factor          DIISBfac        ....   1.050
   Max. coefficient     DIISMaxC        ....  10.000
 Trust-Rad. Augm. Hess. CNVTRAH         .... auto
   Auto Start mean grad. ratio tolernc. ....  1.125000
   Auto Start start iteration           ....    20
   Auto Start num. interpolation iter.  ....    10
   Max. Number of Micro iterations      ....    16
   Max. Number of Macro iterations      .... Maxiter - #DIIS iter
   Number of Davidson start vectors     ....     2
   Converg. threshold I  (grad. norm)   ....   1.000e-05
   Converg. threshold II (energy diff.) ....   1.000e-08
   Grad. Scal. Fac. for Micro threshold ....   0.100
   Minimum threshold for Micro iter.    ....   0.010
   NR start threshold (gradient norm)   ....   0.001
   Initial trust radius                 ....   0.400
   Minimum AH scaling param. (alpha)    ....   1.000
   Maximum AH scaling param. (alpha)    .... 1000.000
   Orbital update algorithm             .... Taylor
   White noise on init. David. guess    .... on
   Maximum white noise                  ....   0.010
   Quad. conv. algorithm                .... NR
 SOSCF                  CNVSOSCF        .... on
   Start iteration      SOSCFMaxIt      ....   150
   Startup grad/error   SOSCFStart      ....  0.003300
 Level Shifting         CNVShift        .... on
   Level shift para.    LevelShift      ....    0.2500
   Turn off err/grad.   ShiftErr        ....    0.0010
 Zerner damping         CNVZerner       .... off
 Static damping         CNVDamp         .... on
   Fraction old density DampFac         ....    0.7000
   Max. Damping (<1)    DampMax         ....    0.9800
   Min. Damping (>=0)   DampMin         ....    0.0000
   Turn off err/grad.   DampErr         ....    0.1000
 Fernandez-Rico         CNVRico         .... off

SCF Procedure:
 Maximum # iterations   MaxIter         ....   125
 SCF integral mode      SCFMode         .... Direct
   Integral package                     .... SHARK and LIBINT hybrid scheme
 Reset frequency        DirectResetFreq ....    20
 Integral Threshold     Thresh          ....  2.500e-11 Eh
 Primitive CutOff       TCut            ....  2.500e-12 Eh

Convergence Tolerance:
 Convergence Check Mode ConvCheckMode   .... Total+1el-Energy
 Convergence forced     ConvForced      .... 0
 Energy Change          TolE            ....  1.000e-08 Eh
 1-El. energy change                    ....  1.000e-05 Eh
 Orbital Gradient       TolG            ....  1.000e-05
 Orbital Rotation angle TolX            ....  1.000e-05
 DIIS Error             TolErr          ....  5.000e-07


Diagonalization of the overlap matrix:
Smallest eigenvalue                        ... 9.552e-03
Time for diagonalization                   ...    0.002 sec
Threshold for overlap eigenvalues          ... 1.000e-08
Number of eigenvalues below threshold      ... 0
Time for construction of square roots      ...    0.001 sec
Total time needed                          ...    0.003 sec

Time for model grid setup =    0.023 sec

------------------------------
INITIAL GUESS: MODEL POTENTIAL
------------------------------
Loading Hartree-Fock densities                     ... done
Calculating cut-offs                               ... done
Initializing the effective Hamiltonian             ... done
Setting up the integral package (SHARK)            ... done
Starting the Coulomb interaction                   ... done (   0.0 sec)
Reading the grid                                   ... done
Mapping shells                                     ... done
Starting the XC term evaluation                    ... done (   0.0 sec)
  promolecular density results
     # of electrons  =     19.999886828
     EX              =    -29.186232821
     EC              =     -0.723694490
     EX+EC           =    -29.909927311
Transforming the Hamiltonian                       ... done (   0.0 sec)
Diagonalizing the Hamiltonian                      ... done (   0.0 sec)
Back transforming the eigenvectors                 ... done (   0.0 sec)
Now organizing SCF variables                       ... done
                      ------------------
                      INITIAL GUESS DONE (   0.0 sec)
                      ------------------
-------------------
DFT GRID GENERATION
-------------------

General Integration Accuracy     IntAcc      ... 4.388
Radial Grid Type                 RadialGrid  ... OptM3 with GC (2021)
Angular Grid (max. ang.)         AngularGrid ... 4 (Lebedev-302)
Angular grid pruning method      GridPruning ... 4 (adaptive)
Weight generation scheme         WeightScheme... Becke
Basis function cutoff            BFCut       ... 1.0000e-11
Integration weight cutoff        WCut        ... 1.0000e-14
Angular grids for H and He will be reduced by one unit
Partially contracted basis set               ... off
Rotationally invariant grid construction     ... off

Total number of grid points                  ...    13478
Total number of batches                      ...      211
Average number of points per batch           ...       63
Average number of grid points per atom       ...     6739
Time for grid setup =    0.137 sec


--------------------
CPCM SOLVATION MODEL
--------------------
CPCM parameters:
  Epsilon                                         ...       7.2500
  Refrac                                          ...       1.4070
  Rsolv                                           ...       1.3000
  Surface type                                    ... GAUSSIAN VDW
  Epsilon function type                           ...         CPCM
Radii:
 Radius for Cl used is    3.9684 Bohr (=   2.1000 Ang.)
 Radius for Li used is    4.1272 Bohr (=   2.1840 Ang.)
Calculating surface                               ...        done! (  0.0s)
GEPOL surface points                              ...          186
GEPOL Volume                                      ...     403.1497
GEPOL Surface-area                                ...     269.8888
Calculating surface distance matrix               ...        done! (  0.0s)
Performing Cholesky decomposition & store         ...        done! (  0.0s)
Overall time for CPCM initialization              ...                 0.0s
--------------
SCF ITERATIONS
--------------
ITER       Energy         Delta-E        Max-DP      RMS-DP      [F,P]     Damp
               ***  Starting incremental Fock matrix formation  ***
  0   -467.5366940603   0.000000000000 0.11636086  0.00447864  0.1676358 0.7000
  1   -467.5705104939  -0.033816433582 0.07256784  0.00321844  0.0931484 0.7000
                               ***Turning on DIIS***
  2   -467.5852680231  -0.014757529246 0.10735499  0.00535370  0.0388373 0.0000
  3   -467.6039664448  -0.018698421706 0.05171269  0.00217138  0.0506287 0.0000
  4   -467.6103516186  -0.006385173771 0.01188619  0.00054476  0.0116423 0.0000
                      *** Initiating the SOSCF procedure ***
                           *** Shutting down DIIS ***
                      *** Re-Reading the Fockian *** 
                      *** Removing any level shift *** 
ITER      Energy       Delta-E        Grad      Rot      Max-DP    RMS-DP
  5   -467.61073598  -0.0003843653  0.000920  0.000920  0.002986  0.000141
               *** Restarting incremental Fock matrix formation ***
  6   -467.61076167  -0.0000256879  0.000333  0.001573  0.001477  0.000086
  7   -467.61076387  -0.0000021966  0.000353  0.000343  0.000972  0.000041
  8   -467.61076478  -0.0000009079  0.000082  0.000163  0.000332  0.000013
  9   -467.61076484  -0.0000000607  0.000028  0.000023  0.000029  0.000002
 10   -467.61076484  -0.0000000011  0.000006  0.000003  0.000003  0.000000
                  ***Gradient check signals convergence***
              ***Rediagonalizing the Fockian in SOSCF/NRSCF***

               *****************************************************
               *                     SUCCESS                       *
               *           SCF CONVERGED AFTER  11 CYCLES          *
               *****************************************************


----------------
TOTAL SCF ENERGY
----------------

Total Energy       :         -467.61076484 Eh          -12724.33580 eV

Components:
Nuclear Repulsion  :           20.29175761 Eh             552.16680 eV
Electronic Energy  :         -487.90252245 Eh          -13276.50260 eV
One Electron Energy:         -686.69440696 Eh          -18685.90479 eV
Two Electron Energy:          198.79188451 Eh            5409.40219 eV
CPCM Dielectric    :           -0.01320348 Eh              -0.35928 eV

Virial components:
Potential Energy   :         -935.85404577 Eh          -25465.88325 eV
Kinetic Energy     :          468.24328093 Eh           12741.54744 eV
Virial Ratio       :            1.99864917


DFT components:
N(Alpha)           :        9.999997432042 electrons
N(Beta)            :        9.999997432042 electrons
N(Total)           :       19.999994864084 electrons
E(X)               :      -29.662760427743 Eh       
E(C)               :       -0.748951281148 Eh       
E(XC)              :      -30.411711708890 Eh       
DFET-embed. en.    :        0.000000000000 Eh       
CPCM Solvation Model Properties:
Surface-charge          :           -0.01246172
Charge-correction       :            0.00005120 Eh               0.00139 eV
Free-energy (cav+disp)  :  This term is not implemented in the current solvation scheme

---------------
SCF CONVERGENCE
---------------

  Last Energy change         ...   -8.5549e-11  Tolerance :   1.0000e-08
  Last MAX-Density change    ...    2.4847e-06  Tolerance :   1.0000e-07
  Last RMS-Density change    ...    1.5297e-07  Tolerance :   5.0000e-09
  Last Orbital Gradient      ...    2.0497e-06  Tolerance :   1.0000e-05
  Last Orbital Rotation      ...    1.9444e-06  Tolerance :   1.0000e-05

             **** THE GBW FILE WAS UPDATED (LiCl_freqopt.gbw) ****
             **** DENSITY LiCl_freqopt.scfp WAS UPDATED ****
             **** ENERGY FILE WAS UPDATED (LiCl_freqopt.en.tmp) ****
             **** THE GBW FILE WAS UPDATED (LiCl_freqopt.gbw) ****
             **** DENSITY LiCl_freqopt.scfp WAS UPDATED ****
----------------
ORBITAL ENERGIES
----------------

  NO   OCC          E(Eh)            E(eV) 
   0   2.0000    -100.901411     -2745.6670 
   1   2.0000      -9.169967      -249.5275 
   2   2.0000      -6.941216      -188.8801 
   3   2.0000      -6.940882      -188.8710 
   4   2.0000      -6.940882      -188.8710 
   5   2.0000      -1.938943       -52.7613 
   6   2.0000      -0.693630       -18.8746 
   7   2.0000      -0.283128        -7.7043 
   8   2.0000      -0.283128        -7.7043 
   9   2.0000      -0.239922        -6.5286 
  10   0.0000      -0.028454        -0.7743 
  11   0.0000       0.061243         1.6665 
  12   0.0000       0.061243         1.6665 
  13   0.0000       0.068139         1.8542 
  14   0.0000       0.131946         3.5904 
  15   0.0000       0.284069         7.7299 
  16   0.0000       0.284069         7.7299 
  17   0.0000       0.339656         9.2425 
  18   0.0000       0.407831        11.0976 
  19   0.0000       0.407850        11.0982 
  20   0.0000       0.437367        11.9014 
  21   0.0000       0.437367        11.9014 
  22   0.0000       0.531627        14.4663 
  23   0.0000       0.718777        19.5589 
  24   0.0000       0.718777        19.5589 
  25   0.0000       0.761343        20.7172 
  26   0.0000       0.882646        24.0180 
  27   0.0000       1.715433        46.6793 
  28   0.0000       1.715842        46.6904 
  29   0.0000       1.747355        47.5479 
  30   0.0000       1.752112        47.6774 
  31   0.0000       1.752112        47.6774 
  32   0.0000       2.028216        55.1906 
  33   0.0000       2.047776        55.7228 
  34   0.0000       2.047921        55.7268 
  35   0.0000       2.082012        56.6544 
  36   0.0000       2.082012        56.6544 
  37   0.0000       2.201051        59.8936 
  38   0.0000       2.214215        60.2519 
  39   0.0000       2.214215        60.2519 
  40   0.0000       2.274064        61.8804 
  41   0.0000       2.274064        61.8804 
  42   0.0000       2.825604        76.8886 
  43   0.0000       5.762755       156.8125 
  44   0.0000       5.762755       156.8125 
  45   0.0000       6.235558       169.6782 
  46   0.0000      10.678827       290.5856 
  47   0.0000      10.678827       290.5856 
  48   0.0000      10.813347       294.2461 
  49   0.0000      14.985073       407.7646 
  50   0.0000      24.538051       667.7143 

                    ********************************
                    * MULLIKEN POPULATION ANALYSIS *
                    ********************************

-----------------------
MULLIKEN ATOMIC CHARGES
-----------------------
   0 Cl:   -0.748819
   1 Li:    0.748819
Sum of atomic charges:   -0.0000000

--------------------------------
MULLIKEN REDUCED ORBITAL CHARGES
--------------------------------
  0 Cls       :     5.976703  s :     5.976703
      pz      :     3.875217  p :    11.725661
      px      :     3.975227
      py      :     3.875217
      dz2     :     0.004545  d :     0.040620
      dxz     :     0.011220
      dyz     :     0.000000
      dx2y2   :     0.013635
      dxy     :     0.011220
      f0      :     0.000333  f :     0.005835
      f+1     :     0.001522
      f-1     :     0.000056
      f+2     :     0.000555
      f-2     :     0.000000
      f+3     :     0.002537
      f-3     :     0.000833
  1 Lis       :     1.874711  s :     1.874711
      pz      :     0.112675  p :     0.376470
      px      :     0.151120
      py      :     0.112675


                     *******************************
                     * LOEWDIN POPULATION ANALYSIS *
                     *******************************

----------------------
LOEWDIN ATOMIC CHARGES
----------------------
   0 Cl:   -0.110094
   1 Li:    0.110094

-------------------------------
LOEWDIN REDUCED ORBITAL CHARGES
-------------------------------
  0 Cls       :     5.598514  s :     5.598514
      pz      :     3.800476  p :    11.367212
      px      :     3.766259
      py      :     3.800476
      dz2     :     0.024379  d :     0.112599
      dxz     :     0.007541
      dyz     :     0.000000
      dx2y2   :     0.073138
      dxy     :     0.007541
      f0      :     0.000168  f :     0.031769
      f+1     :     0.011577
      f-1     :     0.000028
      f+2     :     0.000280
      f-2     :     0.000000
      f+3     :     0.019296
      f-3     :     0.000420
  1 Lis       :     2.042807  s :     2.042807
      pz      :     0.191535  p :     0.847099
      px      :     0.464030
      py      :     0.191535


                      *****************************
                      * MAYER POPULATION ANALYSIS *
                      *****************************

  NA   - Mulliken gross atomic population
  ZA   - Total nuclear charge
  QA   - Mulliken gross atomic charge
  VA   - Mayer's total valence
  BVA  - Mayer's bonded valence
  FA   - Mayer's free valence

  ATOM       NA         ZA         QA         VA         BVA        FA
  0 Cl    17.7488    17.0000    -0.7488     0.5685     0.5685    -0.0000
  1 Li     2.2512     3.0000     0.7488     0.5685     0.5685     0.0000

  Mayer bond orders larger than 0.100000
B(  0-Cl,  1-Li) :   0.5685 

-------
TIMINGS
-------

Total SCF time: 0 days 0 hours 0 min 3 sec 

Total time                  ....       3.569 sec
Sum of individual times     ....       3.411 sec  ( 95.6%)

Fock matrix formation       ....       3.195 sec  ( 89.5%)
  Split-RI-J                ....       0.175 sec  (  5.5% of F)
  XC integration            ....       1.239 sec  ( 38.8% of F)
    Basis function eval.    ....       0.218 sec  ( 17.6% of XC)
    Density eval.           ....       0.295 sec  ( 23.8% of XC)
    XC-Functional eval.     ....       0.362 sec  ( 29.2% of XC)
    XC-Potential eval.      ....       0.280 sec  ( 22.6% of XC)
Diagonalization             ....       0.011 sec  (  0.3%)
Density matrix formation    ....       0.001 sec  (  0.0%)
Population analysis         ....       0.002 sec  (  0.1%)
Initial guess               ....       0.024 sec  (  0.7%)
Orbital Transformation      ....       0.000 sec  (  0.0%)
Orbital Orthonormalization  ....       0.000 sec  (  0.0%)
DIIS solution               ....       0.009 sec  (  0.3%)
SOSCF solution              ....       0.009 sec  (  0.2%)
Grid generation             ....       0.161 sec  (  4.5%)

Maximum memory used throughout the entire SCF-calculation: 7.1 MB


-------------------------------------------------------------------------------
                          DFT DISPERSION CORRECTION                            
                                                                               
                              DFTD3 V3.1  Rev 1                                
                          USING Becke-Johnson damping                          
-------------------------------------------------------------------------------
The TPSS functional is recognized
Active option DFTDOPT                   ...         4   

molecular C6(AA) [au] = 342.232331 


            DFT-D V3
 parameters
 s6 scaling factor         :     1.0000 
 a1 scaling factor         :     0.4535 
 s8 scaling factor         :     1.9435 
 a2 scaling factor         :     4.4752 
 ad hoc parameters k1-k3   :    16.0000     1.3333    -4.0000 

 Edisp/kcal,au: -0.578301574215  -0.000921582122 
 E6   /kcal   :  -0.209357311 
 E8   /kcal   :  -0.368944263 
 % E8         :  63.797900494 

-------------------------   ----------------
Dispersion correction           -0.000921582
-------------------------   ----------------


-------------------------   --------------------
FINAL SINGLE POINT ENERGY      -467.611686420331
-------------------------   --------------------



           ************************************************************
           *        Program running with 2 parallel MPI-processes     *
           *              working on a common directory               *
           ************************************************************
------------------------------------------------------------------------------
                         ORCA SCF GRADIENT CALCULATION
------------------------------------------------------------------------------

Gradient of the Kohn-Sham DFT energy:
Kohn-Sham wavefunction type      ... RKS
Hartree-Fock exchange scaling    ...    0.000
Number of operators              ...    1
Number of atoms                  ...    2
Basis set dimensions             ...   51
Integral neglect threshold       ... 2.5e-11
Integral primitive cutoff        ... 2.5e-12
SHARK Integral package           ... ON

Nuc. rep. gradient       (SHARK) ... done (  0.0 sec)
HCore & Overlap gradient (SHARK) ... done (  0.0 sec)
RI-J gradient            (SHARK) ... done (  0.2 sec)
Exchange-correlation gradient    ... done
Dispersion correction            ... done

------------------
CARTESIAN GRADIENT
------------------

   1   Cl  :    0.578868920   -0.000000000    0.000000000
   2   Li  :   -0.578868920    0.000000000   -0.000000000

Difference to translation invariance:
           :   -0.0000000000    0.0000000000    0.0000000000

Difference to rotation invariance:
           :    0.0000000000    0.0000000002    0.0000000007

Norm of the cartesian gradient     ...    0.8186442781
RMS gradient                       ...    0.3342101270
MAX gradient                       ...    0.5788689204

-------
TIMINGS
-------

Total SCF gradient time            ...        0.817 sec

One electron gradient       ....       0.009 sec  (  1.1%)
RI-J Coulomb gradient       ....       0.189 sec  ( 23.1%)
XC gradient                 ....       0.186 sec  ( 22.8%)
CPCM gradient               ....       0.100 sec  ( 12.3%)
   A-Matrix (El+Nuc)        ....       0.003 sec  (  0.3%)
   Potential                ....       0.098 sec  ( 12.0%)

Maximum memory used throughout the entire SCFGRAD-calculation: 25.6 MB
------------------------------------------------------------------------------
                         ORCA GEOMETRY RELAXATION STEP
------------------------------------------------------------------------------

Reading the OPT-File                    .... done
Getting information on internals        .... done
Copying old internal coords+grads       .... done
Making the new internal coordinates     .... (new redundants).... done
Validating the new internal coordinates .... (new redundants).... done
Calculating the B-matrix                .... done
Calculating the G,G- and P matrices     .... done
Transforming gradient to internals      .... done
Projecting the internal gradient        .... done
Number of atoms                         ....   2
Number of internal coordinates          ....   1
Current Energy                          ....  -467.611686420 Eh
Current gradient norm                   ....     0.818644278 Eh/bohr
Maximum allowed component of the step   ....  0.300
Current trust radius                    ....  0.300
Evaluating the initial hessian          ....  (Almloef) done
Projecting the Hessian                  .... done
Forming the augmented Hessian           .... done
Diagonalizing the augmented Hessian     .... done
Last element of RFO vector              ....  0.997700590
Lowest eigenvalues of augmented Hessian:
 -0.039323614
Length of the computed step             ....  0.067931811
The final length of the internal step   ....  0.067931811
Converting the step to cartesian space:
 Initial RMS(Int)=    0.0679318108
Transforming coordinates:
 Iter   0:  RMS(Cart)=    0.0196102246 RMS(Int)=    0.0679318108
 Iter   1:  RMS(Cart)=    0.0000000000 RMS(Int)=    0.0000000000
done
Storing new coordinates                 .... done

                                .--------------------.
          ----------------------|Geometry convergence|-------------------------
          Item                value                   Tolerance       Converged
          ---------------------------------------------------------------------
          RMS gradient        0.5788689204            0.0001000000      NO
          MAX gradient        0.5788689204            0.0003000000      NO
          RMS step            0.0679318108            0.0020000000      NO
          MAX step            0.0679318108            0.0040000000      NO
          ........................................................
          Max(Bonds)      0.0359      Max(Angles)    0.00
          Max(Dihed)        0.00      Max(Improp)    0.00
          ---------------------------------------------------------------------

The optimization has not yet converged - more geometry cycles are needed


    ---------------------------------------------------------------------------
                         Redundant Internal Coordinates
                            (Angstroem and degrees)

        Definition                    Value    dE/dq     Step     New-Value
    ----------------------------------------------------------------------------
     1. B(Li  1,Cl  0)                1.3300 -0.578869  0.0359    1.3659   
    ----------------------------------------------------------------------------

         *************************************************************
         *                GEOMETRY OPTIMIZATION CYCLE   2            *
         *************************************************************
---------------------------------
CARTESIAN COORDINATES (ANGSTROEM)
---------------------------------
  Cl    -1.474706    0.541743    0.000000
  Li    -0.108759    0.541743    0.000000

----------------------------
CARTESIAN COORDINATES (A.U.)
----------------------------
  NO LB      ZA    FRAG     MASS         X           Y           Z
   0 Cl   17.0000    0    35.453   -2.786791    1.023745    0.000000
   1 Li    3.0000    0     6.941   -0.205524    1.023745    0.000000

--------------------------------
INTERNAL COORDINATES (ANGSTROEM)
--------------------------------
 Cl     0   0   0     0.000000000000     0.00000000     0.00000000
 Li     1   0   0     1.365947965979     0.00000000     0.00000000

---------------------------
INTERNAL COORDINATES (A.U.)
---------------------------
 Cl     0   0   0     0.000000000000     0.00000000     0.00000000
 Li     1   0   0     2.581267568886     0.00000000     0.00000000



           ************************************************************
           *        Program running with 2 parallel MPI-processes     *
           *              working on a common directory               *
           ************************************************************
------------------------------------------------------------------------------
                   ___                                                        
                  /   \      - P O W E R E D   B Y -                         
                 /     \                                                     
                 |  |  |   _    _      __       _____    __    __             
                 |  |  |  | |  | |    /  \     |  _  \  |  |  /  |          
                  \  \/   | |  | |   /    \    | | | |  |  | /  /          
                 / \  \   | |__| |  /  /\  \   | |_| |  |  |/  /          
                |  |  |   |  __  | /  /__\  \  |    /   |      \           
                |  |  |   | |  | | |   __   |  |    \   |  |\   \          
                \     /   | |  | | |  |  |  |  | |\  \  |  | \   \       
                 \___/    |_|  |_| |__|  |__|  |_| \__\ |__|  \__/        
                                                                              
                      - O R C A' S   B I G   F R I E N D -                    
                                      &                                       
                       - I N T E G R A L  F E E D E R -                       
                                                                              
 v1 FN, 2020, v2 2021                                                         
------------------------------------------------------------------------------


Reading SHARK input file LiCl_freqopt.SHARKINP.tmp ... ok
----------------------
SHARK INTEGRAL PACKAGE
----------------------

Number of atoms                             ...      2
Number of basis functions                   ...     51
Number of shells                            ...     21
Maximum angular momentum                    ...      3
Integral batch strategy                     ... SHARK/LIBINT Hybrid
RI-J (if used) integral strategy            ... SPLIT-RIJ (Revised 2003 algorithm where possible)
Printlevel                                  ...      1
Contraction scheme used                     ... SEGMENTED contraction
Coulomb Range Separation                    ... NOT USED
Exchange Range Separation                   ... NOT USED
Finite Nucleus Model                        ... NOT USED
Auxiliary Coulomb fitting basis             ... AVAILABLE
   # of basis functions in Aux-J            ...    100
   # of shells in Aux-J                     ...     32
   Maximum angular momentum in Aux-J        ...      4
Auxiliary J/K fitting basis                 ... NOT available
Auxiliary Correlation fitting basis         ... NOT available
Auxiliary 'external' fitting basis          ... NOT available
Integral threshold                          ...     2.500000e-11
Primitive cut-off                           ...     2.500000e-12
Primitive pair pre-selection threshold      ...     2.500000e-12

Calculating pre-screening integrals         ... done (  0.1 sec) Dimension = 21
Organizing shell pair data                  ... done (  0.0 sec)
Shell pair information
Total number of shell pairs                 ...       231
Shell pairs after pre-screening             ...       230
Total number of primitive shell pairs       ...       913
Primitive shell pairs kept                  ...       823
          la=0 lb=0:     54 shell pairs
          la=1 lb=0:     80 shell pairs
          la=1 lb=1:     36 shell pairs
          la=2 lb=0:     20 shell pairs
          la=2 lb=1:     16 shell pairs
          la=2 lb=2:      3 shell pairs
          la=3 lb=0:     10 shell pairs
          la=3 lb=1:      8 shell pairs
          la=3 lb=2:      2 shell pairs
          la=3 lb=3:      1 shell pairs

Calculating one electron integrals          ... done (  0.0 sec)
Calculating RI/J V-Matrix + Cholesky decomp.... done (  0.0 sec)
Calculating Nuclear repulsion               ... done (  0.0 sec) ENN=     19.757734771373 Eh

SHARK setup successfully completed in   0.3 seconds

Maximum memory used throughout the entire GTOINT-calculation: 15.3 MB


           ************************************************************
           *        Program running with 2 parallel MPI-processes     *
           *              working on a common directory               *
           ************************************************************

Diagonalization of the overlap matrix:
Smallest eigenvalue                        ... 1.046e-02
Time for diagonalization                   ...    0.002 sec
Threshold for overlap eigenvalues          ... 1.000e-08
Number of eigenvalues below threshold      ... 0
Time for construction of square roots      ...    0.001 sec
Total time needed                          ...    0.003 sec

-------------------
DFT GRID GENERATION
-------------------

General Integration Accuracy     IntAcc      ... 4.388
Radial Grid Type                 RadialGrid  ... OptM3 with GC (2021)
Angular Grid (max. ang.)         AngularGrid ... 4 (Lebedev-302)
Angular grid pruning method      GridPruning ... 4 (adaptive)
Weight generation scheme         WeightScheme... Becke
Basis function cutoff            BFCut       ... 1.0000e-11
Integration weight cutoff        WCut        ... 1.0000e-14
Angular grids for H and He will be reduced by one unit
Partially contracted basis set               ... off
Rotationally invariant grid construction     ... off

Total number of grid points                  ...    13480
Total number of batches                      ...      212
Average number of points per batch           ...       63
Average number of grid points per atom       ...     6740
Time for grid setup =    0.148 sec


--------------------
CPCM SOLVATION MODEL
--------------------
CPCM parameters:
  Epsilon                                         ...       7.2500
  Refrac                                          ...       1.4070
  Rsolv                                           ...       1.3000
  Surface type                                    ... GAUSSIAN VDW
  Epsilon function type                           ...         CPCM
Radii:
 Radius for Cl used is    3.9684 Bohr (=   2.1000 Ang.)
 Radius for Li used is    4.1272 Bohr (=   2.1840 Ang.)
Calculating surface                               ...        done! (  0.0s)
GEPOL surface points                              ...          186
GEPOL Volume                                      ...     406.2558
GEPOL Surface-area                                ...     271.5643
Calculating surface distance matrix               ...        done! (  0.0s)
Performing Cholesky decomposition & store         ...        done! (  0.0s)
Overall time for CPCM initialization              ...                 0.0s
--------------
SCF ITERATIONS
--------------
ITER       Energy         Delta-E        Max-DP      RMS-DP      [F,P]     Damp
               ***  Starting incremental Fock matrix formation  ***
  0   -467.6470116706   0.000000000000 0.00242135  0.00016338  0.0232692 0.7000
                      *** Initiating the SOSCF procedure ***
                      *** Re-Reading the Fockian *** 
                      *** Removing any level shift *** 
ITER      Energy       Delta-E        Grad      Rot      Max-DP    RMS-DP
  1   -467.64716895  -0.0001572791  0.001127  0.001127  0.006864  0.000487
               *** Restarting incremental Fock matrix formation ***
  2   -467.64752024  -0.0003512873  0.001593  0.002737  0.004796  0.000240
  3   -467.64752245  -0.0000022142  0.001243  0.001067  0.001936  0.000097
  4   -467.64753545  -0.0000129970  0.000057  0.000049  0.000064  0.000003
  5   -467.64753545  -0.0000000045  0.000016  0.000004  0.000015  0.000001
  6   -467.64753545  -0.0000000004  0.000003  0.000003  0.000007  0.000000
                 **** Energy Check signals convergence ****
              ***Rediagonalizing the Fockian in SOSCF/NRSCF***

               *****************************************************
               *                     SUCCESS                       *
               *           SCF CONVERGED AFTER   7 CYCLES          *
               *****************************************************

Total Energy       :         -467.64753545 Eh          -12725.33638 eV
  Last Energy change         ...   -3.6272e-10  Tolerance :   1.0000e-08
  Last MAX-Density change    ...    1.6737e-06  Tolerance :   1.0000e-07
             **** THE GBW FILE WAS UPDATED (LiCl_freqopt.gbw) ****
             **** DENSITY LiCl_freqopt.scfp WAS UPDATED ****
             **** ENERGY FILE WAS UPDATED (LiCl_freqopt.en.tmp) ****
             **** THE GBW FILE WAS UPDATED (LiCl_freqopt.gbw) ****
             **** DENSITY LiCl_freqopt.scfp WAS UPDATED ****
Total SCF time: 0 days 0 hours 0 min 2 sec 

Maximum memory used throughout the entire SCF-calculation: 7.1 MB


-------------------------------------------------------------------------------
                          DFT DISPERSION CORRECTION                            
                                                                               
                              DFTD3 V3.1  Rev 1                                
                          USING Becke-Johnson damping                          
-------------------------------------------------------------------------------
-------------------------   ----------------
Dispersion correction           -0.000921506
-------------------------   ----------------


-------------------------   --------------------
FINAL SINGLE POINT ENERGY      -467.648456959331
-------------------------   --------------------



           ************************************************************
           *        Program running with 2 parallel MPI-processes     *
           *              working on a common directory               *
           ************************************************************
------------------------------------------------------------------------------
                         ORCA SCF GRADIENT CALCULATION
------------------------------------------------------------------------------

Gradient of the Kohn-Sham DFT energy:
Kohn-Sham wavefunction type      ... RKS
Hartree-Fock exchange scaling    ...    0.000
Number of operators              ...    1
Number of atoms                  ...    2
Basis set dimensions             ...   51
Integral neglect threshold       ... 2.5e-11
Integral primitive cutoff        ... 2.5e-12
SHARK Integral package           ... ON

Nuc. rep. gradient       (SHARK) ... done (  0.0 sec)
HCore & Overlap gradient (SHARK) ... done (  0.0 sec)
RI-J gradient            (SHARK) ... done (  0.2 sec)
Exchange-correlation gradient    ... done
Dispersion correction            ... done

------------------
CARTESIAN GRADIENT
------------------

   1   Cl  :    0.505203488   -0.000000000   -0.000000000
   2   Li  :   -0.505203488    0.000000000    0.000000000

Difference to translation invariance:
           :   -0.0000000000    0.0000000000    0.0000000000

Difference to rotation invariance:
           :    0.0000000000   -0.0000000002    0.0000000004

Norm of the cartesian gradient     ...    0.7144656250
RMS gradient                       ...    0.2916793700
MAX gradient                       ...    0.5052034884

-------
TIMINGS
-------

Total SCF gradient time            ...        0.834 sec

One electron gradient       ....       0.009 sec  (  1.1%)
RI-J Coulomb gradient       ....       0.190 sec  ( 22.8%)
XC gradient                 ....       0.185 sec  ( 22.2%)
CPCM gradient               ....       0.120 sec  ( 14.4%)
   A-Matrix (El+Nuc)        ....       0.003 sec  (  0.3%)
   Potential                ....       0.117 sec  ( 14.1%)

Maximum memory used throughout the entire SCFGRAD-calculation: 25.6 MB
------------------------------------------------------------------------------
                         ORCA GEOMETRY RELAXATION STEP
------------------------------------------------------------------------------

Reading the OPT-File                    .... done
Getting information on internals        .... done
Copying old internal coords+grads       .... done
Making the new internal coordinates     .... (new redundants).... done
Validating the new internal coordinates .... (new redundants).... done
Calculating the B-matrix                .... done
Calculating the G,G- and P matrices     .... done
Transforming gradient to internals      .... done
Projecting the internal gradient        .... done
Number of atoms                         ....   2
Number of internal coordinates          ....   1
Current Energy                          ....  -467.648456959 Eh
Current gradient norm                   ....     0.714465625 Eh/bohr
Maximum allowed component of the step   ....  0.300
Current trust radius                    ....  0.300
Updating the Hessian (BFGS)             .... done
Forming the augmented Hessian           .... done
Diagonalizing the augmented Hessian     .... done
Last element of RFO vector              ....  0.930491225
Lowest eigenvalues of augmented Hessian:
 -0.198887639
Length of the computed step             ....  0.393678276
Warning: the length of the step is outside the trust region - taking restricted step instead
The input lambda is                     ....    -0.198888
   iter:   1  x=   -0.467923  g=    0.241539 f(x)=     0.064983
   iter:   2  x=   -0.584565  g=    0.136463 f(x)=     0.015917
   iter:   3  x=   -0.599408  g=    0.109804 f(x)=     0.001630
   iter:   4  x=   -0.599609  g=    0.106926 f(x)=     0.000021
   iter:   5  x=   -0.599609  g=    0.106888 f(x)=     0.000000
   iter:   6  x=   -0.599609  g=    0.106888 f(x)=     0.000000
The output lambda is                    ....    -0.599609 (6 iterations)
The final length of the internal step   ....  0.300000000
Converting the step to cartesian space:
 Initial RMS(Int)=    0.3000000000
Transforming coordinates:
 Iter   0:  RMS(Cart)=    0.0577350269 RMS(Int)=    0.2000000000
 Iter   1:  RMS(Cart)=    0.0288675135 RMS(Int)=    0.1000000000
 Iter   2:  RMS(Cart)=    0.0000000000 RMS(Int)=    0.0000000000
done
Storing new coordinates                 .... done

                                .--------------------.
          ----------------------|Geometry convergence|-------------------------
          Item                value                   Tolerance       Converged
          ---------------------------------------------------------------------
          Energy change      -0.0367705390            0.0000050000      NO
          RMS gradient        0.5052034884            0.0001000000      NO
          MAX gradient        0.5052034884            0.0003000000      NO
          RMS step            0.3000000000            0.0020000000      NO
          MAX step            0.3000000000            0.0040000000      NO
          ........................................................
          Max(Bonds)      0.1588      Max(Angles)    0.00
          Max(Dihed)        0.00      Max(Improp)    0.00
          ---------------------------------------------------------------------

The optimization has not yet converged - more geometry cycles are needed


    ---------------------------------------------------------------------------
                         Redundant Internal Coordinates
                            (Angstroem and degrees)

        Definition                    Value    dE/dq     Step     New-Value
    ----------------------------------------------------------------------------
     1. B(Li  1,Cl  0)                1.3659 -0.505203  0.1588    1.5247   
    ----------------------------------------------------------------------------

         *************************************************************
         *                GEOMETRY OPTIMIZATION CYCLE   3            *
         *************************************************************
---------------------------------
CARTESIAN COORDINATES (ANGSTROEM)
---------------------------------
  Cl    -1.554083    0.541743    0.000000
  Li    -0.029382    0.541743    0.000000

----------------------------
CARTESIAN COORDINATES (A.U.)
----------------------------
  NO LB      ZA    FRAG     MASS         X           Y           Z
   0 Cl   17.0000    0    35.453   -2.936791    1.023745    0.000000
   1 Li    3.0000    0     6.941   -0.055524    1.023745    0.000000

--------------------------------
INTERNAL COORDINATES (ANGSTROEM)
--------------------------------
 Cl     0   0   0     0.000000000000     0.00000000     0.00000000
 Li     1   0   0     1.524701128469     0.00000000     0.00000000

---------------------------
INTERNAL COORDINATES (A.U.)
---------------------------
 Cl     0   0   0     0.000000000000     0.00000000     0.00000000
 Li     1   0   0     2.881267568886     0.00000000     0.00000000



           ************************************************************
           *        Program running with 2 parallel MPI-processes     *
           *              working on a common directory               *
           ************************************************************
------------------------------------------------------------------------------
                   ___                                                        
                  /   \      - P O W E R E D   B Y -                         
                 /     \                                                     
                 |  |  |   _    _      __       _____    __    __             
                 |  |  |  | |  | |    /  \     |  _  \  |  |  /  |          
                  \  \/   | |  | |   /    \    | | | |  |  | /  /          
                 / \  \   | |__| |  /  /\  \   | |_| |  |  |/  /          
                |  |  |   |  __  | /  /__\  \  |    /   |      \           
                |  |  |   | |  | | |   __   |  |    \   |  |\   \          
                \     /   | |  | | |  |  |  |  | |\  \  |  | \   \       
                 \___/    |_|  |_| |__|  |__|  |_| \__\ |__|  \__/        
                                                                              
                      - O R C A' S   B I G   F R I E N D -                    
                                      &                                       
                       - I N T E G R A L  F E E D E R -                       
                                                                              
 v1 FN, 2020, v2 2021                                                         
------------------------------------------------------------------------------


Reading SHARK input file LiCl_freqopt.SHARKINP.tmp ... ok
----------------------
SHARK INTEGRAL PACKAGE
----------------------

Number of atoms                             ...      2
Number of basis functions                   ...     51
Number of shells                            ...     21
Maximum angular momentum                    ...      3
Integral batch strategy                     ... SHARK/LIBINT Hybrid
RI-J (if used) integral strategy            ... SPLIT-RIJ (Revised 2003 algorithm where possible)
Printlevel                                  ...      1
Contraction scheme used                     ... SEGMENTED contraction
Coulomb Range Separation                    ... NOT USED
Exchange Range Separation                   ... NOT USED
Finite Nucleus Model                        ... NOT USED
Auxiliary Coulomb fitting basis             ... AVAILABLE
   # of basis functions in Aux-J            ...    100
   # of shells in Aux-J                     ...     32
   Maximum angular momentum in Aux-J        ...      4
Auxiliary J/K fitting basis                 ... NOT available
Auxiliary Correlation fitting basis         ... NOT available
Auxiliary 'external' fitting basis          ... NOT available
Integral threshold                          ...     2.500000e-11
Primitive cut-off                           ...     2.500000e-12
Primitive pair pre-selection threshold      ...     2.500000e-12

Calculating pre-screening integrals         ... done (  0.1 sec) Dimension = 21
Organizing shell pair data                  ... done (  0.0 sec)
Shell pair information
Total number of shell pairs                 ...       231
Shell pairs after pre-screening             ...       228
Total number of primitive shell pairs       ...       913
Primitive shell pairs kept                  ...       815
          la=0 lb=0:     53 shell pairs
          la=1 lb=0:     79 shell pairs
          la=1 lb=1:     36 shell pairs
          la=2 lb=0:     20 shell pairs
          la=2 lb=1:     16 shell pairs
          la=2 lb=2:      3 shell pairs
          la=3 lb=0:     10 shell pairs
          la=3 lb=1:      8 shell pairs
          la=3 lb=2:      2 shell pairs
          la=3 lb=3:      1 shell pairs

Calculating one electron integrals          ... done (  0.0 sec)
Calculating RI/J V-Matrix + Cholesky decomp.... done (  0.0 sec)
Calculating Nuclear repulsion               ... done (  0.0 sec) ENN=     17.700542827307 Eh

SHARK setup successfully completed in   0.3 seconds

Maximum memory used throughout the entire GTOINT-calculation: 15.3 MB


           ************************************************************
           *        Program running with 2 parallel MPI-processes     *
           *              working on a common directory               *
           ************************************************************

Diagonalization of the overlap matrix:
Smallest eigenvalue                        ... 1.532e-02
Time for diagonalization                   ...    0.002 sec
Threshold for overlap eigenvalues          ... 1.000e-08
Number of eigenvalues below threshold      ... 0
Time for construction of square roots      ...    0.001 sec
Total time needed                          ...    0.003 sec

-------------------
DFT GRID GENERATION
-------------------

General Integration Accuracy     IntAcc      ... 4.388
Radial Grid Type                 RadialGrid  ... OptM3 with GC (2021)
Angular Grid (max. ang.)         AngularGrid ... 4 (Lebedev-302)
Angular grid pruning method      GridPruning ... 4 (adaptive)
Weight generation scheme         WeightScheme... Becke
Basis function cutoff            BFCut       ... 1.0000e-11
Integration weight cutoff        WCut        ... 1.0000e-14
Angular grids for H and He will be reduced by one unit
Partially contracted basis set               ... off
Rotationally invariant grid construction     ... off

Total number of grid points                  ...    13481
Total number of batches                      ...      212
Average number of points per batch           ...       63
Average number of grid points per atom       ...     6740
Time for grid setup =    0.128 sec


--------------------
CPCM SOLVATION MODEL
--------------------
CPCM parameters:
  Epsilon                                         ...       7.2500
  Refrac                                          ...       1.4070
  Rsolv                                           ...       1.3000
  Surface type                                    ... GAUSSIAN VDW
  Epsilon function type                           ...         CPCM
Radii:
 Radius for Cl used is    3.9684 Bohr (=   2.1000 Ang.)
 Radius for Li used is    4.1272 Bohr (=   2.1840 Ang.)
Calculating surface                               ...        done! (  0.0s)
GEPOL surface points                              ...          186
GEPOL Volume                                      ...     419.5607
GEPOL Surface-area                                ...     278.7003
Calculating surface distance matrix               ...        done! (  0.0s)
Performing Cholesky decomposition & store         ...        done! (  0.0s)
Overall time for CPCM initialization              ...                 0.0s
--------------
SCF ITERATIONS
--------------
ITER       Energy         Delta-E        Max-DP      RMS-DP      [F,P]     Damp
               ***  Starting incremental Fock matrix formation  ***
  0   -467.7533027270   0.000000000000 0.00868795  0.00058645  0.0833546 0.7000
  1   -467.7553408486  -0.002038121607 0.00824165  0.00053279  0.0602691 0.7000
                               ***Turning on DIIS***
  2   -467.7567728010  -0.001431952392 0.02583907  0.00137591  0.0427129 0.0000
  3   -467.7599845473  -0.003211746246 0.00688251  0.00033318  0.0060148 0.0000
                      *** Initiating the SOSCF procedure ***
                           *** Shutting down DIIS ***
                      *** Re-Reading the Fockian *** 
                      *** Removing any level shift *** 
ITER      Energy       Delta-E        Grad      Rot      Max-DP    RMS-DP
  4   -467.76004755  -0.0000629980  0.000579  0.000579  0.002242  0.000092
               *** Restarting incremental Fock matrix formation ***
  5   -467.76005981  -0.0000122648  0.000296  0.001045  0.001050  0.000051
  6   -467.76006024  -0.0000004272  0.000309  0.000271  0.000357  0.000020
  7   -467.76006100  -0.0000007659  0.000037  0.000045  0.000043  0.000002
  8   -467.76006101  -0.0000000019  0.000013  0.000003  0.000009  0.000000
                  ***Gradient check signals convergence***
              ***Rediagonalizing the Fockian in SOSCF/NRSCF***

               *****************************************************
               *                     SUCCESS                       *
               *           SCF CONVERGED AFTER   9 CYCLES          *
               *****************************************************

Total Energy       :         -467.76006101 Eh          -12728.39836 eV
  Last Energy change         ...   -3.3020e-10  Tolerance :   1.0000e-08
  Last MAX-Density change    ...    3.8990e-06  Tolerance :   1.0000e-07
             **** THE GBW FILE WAS UPDATED (LiCl_freqopt.gbw) ****
             **** DENSITY LiCl_freqopt.scfp WAS UPDATED ****
             **** ENERGY FILE WAS UPDATED (LiCl_freqopt.en.tmp) ****
             **** THE GBW FILE WAS UPDATED (LiCl_freqopt.gbw) ****
             **** DENSITY LiCl_freqopt.scfp WAS UPDATED ****
Total SCF time: 0 days 0 hours 0 min 2 sec 

Maximum memory used throughout the entire SCF-calculation: 7.1 MB


-------------------------------------------------------------------------------
                          DFT DISPERSION CORRECTION                            
                                                                               
                              DFTD3 V3.1  Rev 1                                
                          USING Becke-Johnson damping                          
-------------------------------------------------------------------------------
-------------------------   ----------------
Dispersion correction           -0.000921010
-------------------------   ----------------


-------------------------   --------------------
FINAL SINGLE POINT ENERGY      -467.760982014956
-------------------------   --------------------



           ************************************************************
           *        Program running with 2 parallel MPI-processes     *
           *              working on a common directory               *
           ************************************************************
------------------------------------------------------------------------------
                         ORCA SCF GRADIENT CALCULATION
------------------------------------------------------------------------------

Gradient of the Kohn-Sham DFT energy:
Kohn-Sham wavefunction type      ... RKS
Hartree-Fock exchange scaling    ...    0.000
Number of operators              ...    1
Number of atoms                  ...    2
Basis set dimensions             ...   51
Integral neglect threshold       ... 2.5e-11
Integral primitive cutoff        ... 2.5e-12
SHARK Integral package           ... ON

Nuc. rep. gradient       (SHARK) ... done (  0.0 sec)
HCore & Overlap gradient (SHARK) ... done (  0.0 sec)
RI-J gradient            (SHARK) ... done (  0.2 sec)
Exchange-correlation gradient    ... done
Dispersion correction            ... done

------------------
CARTESIAN GRADIENT
------------------

   1   Cl  :    0.267242774   -0.000000000   -0.000000000
   2   Li  :   -0.267242774    0.000000000    0.000000000

Difference to translation invariance:
           :   -0.0000000000    0.0000000000   -0.0000000000

Difference to rotation invariance:
           :   -0.0000000000   -0.0000000001    0.0000000002

Norm of the cartesian gradient     ...    0.3779383558
RMS gradient                       ...    0.1542926876
MAX gradient                       ...    0.2672427742

-------
TIMINGS
-------

Total SCF gradient time            ...        0.812 sec

One electron gradient       ....       0.009 sec  (  1.1%)
RI-J Coulomb gradient       ....       0.193 sec  ( 23.8%)
XC gradient                 ....       0.191 sec  ( 23.6%)
CPCM gradient               ....       0.101 sec  ( 12.4%)
   A-Matrix (El+Nuc)        ....       0.003 sec  (  0.3%)
   Potential                ....       0.098 sec  ( 12.1%)

Maximum memory used throughout the entire SCFGRAD-calculation: 25.6 MB
------------------------------------------------------------------------------
                         ORCA GEOMETRY RELAXATION STEP
------------------------------------------------------------------------------

Reading the OPT-File                    .... done
Getting information on internals        .... done
Copying old internal coords+grads       .... done
Making the new internal coordinates     .... (new redundants).... done
Validating the new internal coordinates .... (new redundants).... done
Calculating the B-matrix                .... done
Calculating the G,G- and P matrices     .... done
Transforming gradient to internals      .... done
Projecting the internal gradient        .... done
Number of atoms                         ....   2
Number of internal coordinates          ....   1
Current Energy                          ....  -467.760982015 Eh
Current gradient norm                   ....     0.377938356 Eh/bohr
Maximum allowed component of the step   ....  0.300
Current trust radius                    ....  0.300
Updating the Hessian (BFGS)             .... done
Forming the augmented Hessian           .... done
Diagonalizing the augmented Hessian     .... done
Last element of RFO vector              ....  0.956372673
Lowest eigenvalues of augmented Hessian:
 -0.081636412
Length of the computed step             ....  0.305476593
Warning: the length of the step is outside the trust region - taking restricted step instead
The input lambda is                     ....    -0.081636
   iter:   1  x=   -0.097180  g=    0.213333 f(x)=     0.003316
   iter:   2  x=   -0.097607  g=    0.202354 f(x)=     0.000086
   iter:   3  x=   -0.097607  g=    0.202064 f(x)=     0.000000
   iter:   4  x=   -0.097607  g=    0.202063 f(x)=     0.000000
   iter:   5  x=   -0.097607  g=    0.202063 f(x)=     0.000000
The output lambda is                    ....    -0.097607 (5 iterations)
The final length of the internal step   ....  0.300000000
Converting the step to cartesian space:
 Initial RMS(Int)=    0.3000000000
Transforming coordinates:
 Iter   0:  RMS(Cart)=    0.0577350269 RMS(Int)=    0.2000000000
 Iter   1:  RMS(Cart)=    0.0288675135 RMS(Int)=    0.1000000000
 Iter   2:  RMS(Cart)=    0.0000000000 RMS(Int)=    0.0000000000
done
Storing new coordinates                 .... done

                                .--------------------.
          ----------------------|Geometry convergence|-------------------------
          Item                value                   Tolerance       Converged
          ---------------------------------------------------------------------
          Energy change      -0.1125250556            0.0000050000      NO
          RMS gradient        0.2672427742            0.0001000000      NO
          MAX gradient        0.2672427742            0.0003000000      NO
          RMS step            0.3000000000            0.0020000000      NO
          MAX step            0.3000000000            0.0040000000      NO
          ........................................................
          Max(Bonds)      0.1588      Max(Angles)    0.00
          Max(Dihed)        0.00      Max(Improp)    0.00
          ---------------------------------------------------------------------

The optimization has not yet converged - more geometry cycles are needed


    ---------------------------------------------------------------------------
                         Redundant Internal Coordinates
                            (Angstroem and degrees)

        Definition                    Value    dE/dq     Step     New-Value
    ----------------------------------------------------------------------------
     1. B(Li  1,Cl  0)                1.5247 -0.267243  0.1588    1.6835   
    ----------------------------------------------------------------------------

         *************************************************************
         *                GEOMETRY OPTIMIZATION CYCLE   4            *
         *************************************************************
---------------------------------
CARTESIAN COORDINATES (ANGSTROEM)
---------------------------------
  Cl    -1.633460    0.541743    0.000000
  Li     0.049995    0.541743    0.000000

----------------------------
CARTESIAN COORDINATES (A.U.)
----------------------------
  NO LB      ZA    FRAG     MASS         X           Y           Z
   0 Cl   17.0000    0    35.453   -3.086791    1.023745    0.000000
   1 Li    3.0000    0     6.941    0.094476    1.023745    0.000000

--------------------------------
INTERNAL COORDINATES (ANGSTROEM)
--------------------------------
 Cl     0   0   0     0.000000000000     0.00000000     0.00000000
 Li     1   0   0     1.683454290959     0.00000000     0.00000000

---------------------------
INTERNAL COORDINATES (A.U.)
---------------------------
 Cl     0   0   0     0.000000000000     0.00000000     0.00000000
 Li     1   0   0     3.181267568886     0.00000000     0.00000000



           ************************************************************
           *        Program running with 2 parallel MPI-processes     *
           *              working on a common directory               *
           ************************************************************
------------------------------------------------------------------------------
                   ___                                                        
                  /   \      - P O W E R E D   B Y -                         
                 /     \                                                     
                 |  |  |   _    _      __       _____    __    __             
                 |  |  |  | |  | |    /  \     |  _  \  |  |  /  |          
[...]
Virial Ratio       :            2.00189334


DFT components:
N(Alpha)           :        9.999997002724 electrons
N(Beta)            :        9.999997002724 electrons
N(Total)           :       19.999994005448 electrons
E(X)               :      -29.494548717641 Eh       
E(C)               :       -0.736412944465 Eh       
E(XC)              :      -30.230961662106 Eh       
DFET-embed. en.    :        0.000000000000 Eh       
CPCM Solvation Model Properties:
Surface-charge          :           -0.01377578
Charge-correction       :            0.00004804 Eh               0.00131 eV
Free-energy (cav+disp)  :  This term is not implemented in the current solvation scheme

---------------
SCF CONVERGENCE
---------------

  Last Energy change         ...   -6.8150e-10  Tolerance :   1.0000e-08
  Last MAX-Density change    ...    2.8727e-06  Tolerance :   1.0000e-07
  Last RMS-Density change    ...    1.3304e-07  Tolerance :   5.0000e-09
  Last Orbital Gradient      ...    7.3981e-07  Tolerance :   1.0000e-05
  Last Orbital Rotation      ...    2.3797e-06  Tolerance :   1.0000e-05

             **** THE GBW FILE WAS UPDATED (LiCl_freqopt.gbw) ****
             **** DENSITY LiCl_freqopt.scfp WAS UPDATED ****
             **** ENERGY FILE WAS UPDATED (LiCl_freqopt.en.tmp) ****
             **** THE GBW FILE WAS UPDATED (LiCl_freqopt.gbw) ****
             **** DENSITY LiCl_freqopt.scfp WAS UPDATED ****
----------------
ORBITAL ENERGIES
----------------

  NO   OCC          E(Eh)            E(eV) 
   0   2.0000    -100.908507     -2745.8601 
   1   2.0000      -9.159831      -249.2517 
   2   2.0000      -6.932925      -188.6545 
   3   2.0000      -6.932228      -188.6355 
   4   2.0000      -6.932228      -188.6355 
   5   2.0000      -1.934240       -52.6333 
   6   2.0000      -0.674614       -18.3572 
   7   2.0000      -0.258633        -7.0378 
   8   2.0000      -0.237932        -6.4745 
   9   2.0000      -0.237932        -6.4745 
  10   0.0000      -0.027344        -0.7441 
  11   0.0000       0.037417         1.0182 
  12   0.0000       0.037417         1.0182 
  13   0.0000       0.064947         1.7673 
  14   0.0000       0.127840         3.4787 
  15   0.0000       0.334461         9.1011 
  16   0.0000       0.378394        10.2966 
  17   0.0000       0.378394        10.2966 
  18   0.0000       0.387387        10.5413 
  19   0.0000       0.416069        11.3218 
  20   0.0000       0.416069        11.3218 
  21   0.0000       0.443111        12.0577 
  22   0.0000       0.443117        12.0578 
  23   0.0000       0.520470        14.1627 
  24   0.0000       0.520470        14.1627 
  25   0.0000       0.642818        17.4920 
  26   0.0000       0.895353        24.3638 
  27   0.0000       1.328649        36.1544 
  28   0.0000       1.743911        47.4542 
  29   0.0000       1.744085        47.4590 
  30   0.0000       1.761135        47.9229 
  31   0.0000       1.761135        47.9229 
  32   0.0000       1.886116        51.3238 
  33   0.0000       2.111326        57.4521 
  34   0.0000       2.111359        57.4530 
  35   0.0000       2.113955        57.5237 
  36   0.0000       2.113955        57.5237 
  37   0.0000       2.119262        57.6680 
  38   0.0000       2.119262        57.6680 
  39   0.0000       2.252484        61.2932 
  40   0.0000       2.253668        61.3254 
  41   0.0000       2.253668        61.3254 
  42   0.0000       2.317266        63.0560 
  43   0.0000       5.701648       155.1497 
  44   0.0000       5.701648       155.1497 
  45   0.0000       5.865059       159.5964 
  46   0.0000      10.662043       290.1290 
  47   0.0000      10.662043       290.1290 
  48   0.0000      10.683835       290.7219 
  49   0.0000      14.213652       386.7731 
  50   0.0000      24.238359       659.5593 

                    ********************************
                    * MULLIKEN POPULATION ANALYSIS *
                    ********************************

-----------------------
MULLIKEN ATOMIC CHARGES
-----------------------
   0 Cl:   -0.814119
   1 Li:    0.814119
Sum of atomic charges:   -0.0000000

--------------------------------
MULLIKEN REDUCED ORBITAL CHARGES
--------------------------------
  0 Cls       :     5.974055  s :     5.974055
      pz      :     3.958289  p :    11.833861
      px      :     3.917283
      py      :     3.958289
      dz2     :     0.000930  d :     0.005945
      dxz     :     0.001112
      dyz     :     0.000000
      dx2y2   :     0.002791
      dxy     :     0.001112
      f0      :     0.000018  f :     0.000258
      f+1     :     0.000061
      f-1     :     0.000003
      f+2     :     0.000030
      f-2     :     0.000000
      f+3     :     0.000101
      f-3     :     0.000045
  1 Lis       :     2.043252  s :     2.043252
      pz      :     0.040551  p :     0.142629
      px      :     0.061527
      py      :     0.040551


                     *******************************
                     * LOEWDIN POPULATION ANALYSIS *
                     *******************************

----------------------
LOEWDIN ATOMIC CHARGES
----------------------
   0 Cl:   -0.552773
   1 Li:    0.552773

-------------------------------
LOEWDIN REDUCED ORBITAL CHARGES
-------------------------------
  0 Cls       :     5.808070  s :     5.808070
      pz      :     3.934091  p :    11.738988
      px      :     3.870806
      py      :     3.934091
      dz2     :     0.000970  d :     0.005515
      dxz     :     0.000818
      dyz     :     0.000000
      dx2y2   :     0.002910
      dxy     :     0.000818
      f0      :     0.000014  f :     0.000199
      f+1     :     0.000046
      f-1     :     0.000002
      f+2     :     0.000024
      f-2     :     0.000000
      f+3     :     0.000077
      f-3     :     0.000035
  1 Lis       :     2.123375  s :     2.123375
      pz      :     0.065053  p :     0.323852
      px      :     0.193745
      py      :     0.065053


                      *****************************
                      * MAYER POPULATION ANALYSIS *
                      *****************************

  NA   - Mulliken gross atomic population
  ZA   - Total nuclear charge
  QA   - Mulliken gross atomic charge
  VA   - Mayer's total valence
  BVA  - Mayer's bonded valence
  FA   - Mayer's free valence

  ATOM       NA         ZA         QA         VA         BVA        FA
  0 Cl    17.8141    17.0000    -0.8141     0.3618     0.3618    -0.0000
  1 Li     2.1859     3.0000     0.8141     0.3618     0.3618    -0.0000

  Mayer bond orders larger than 0.100000
B(  0-Cl,  1-Li) :   0.3618 

-------
TIMINGS
-------

Total SCF time: 0 days 0 hours 0 min 1 sec 

Total time                  ....       1.336 sec
Sum of individual times     ....       1.168 sec  ( 87.4%)

Fock matrix formation       ....       1.027 sec  ( 76.9%)
  Split-RI-J                ....       0.063 sec  (  6.1% of F)
  XC integration            ....       0.398 sec  ( 38.7% of F)
    Basis function eval.    ....       0.067 sec  ( 16.8% of XC)
    Density eval.           ....       0.096 sec  ( 24.1% of XC)
    XC-Functional eval.     ....       0.120 sec  ( 30.2% of XC)
    XC-Potential eval.      ....       0.074 sec  ( 18.7% of XC)
Diagonalization             ....       0.002 sec  (  0.1%)
Density matrix formation    ....       0.000 sec  (  0.0%)
Population analysis         ....       0.002 sec  (  0.2%)
Initial guess               ....       0.002 sec  (  0.2%)
Orbital Transformation      ....       0.000 sec  (  0.0%)
Orbital Orthonormalization  ....       0.001 sec  (  0.0%)
DIIS solution               ....       0.002 sec  (  0.1%)
SOSCF solution              ....       0.004 sec  (  0.3%)
Grid generation             ....       0.128 sec  (  9.6%)

Maximum memory used throughout the entire SCF-calculation: 7.1 MB


-------------------------------------------------------------------------------
                          DFT DISPERSION CORRECTION                            
                                                                               
                              DFTD3 V3.1  Rev 1                                
                          USING Becke-Johnson damping                          
-------------------------------------------------------------------------------
The TPSS functional is recognized
Active option DFTDOPT                   ...         4   

molecular C6(AA) [au] = 342.427704 


            DFT-D V3
 parameters
 s6 scaling factor         :     1.0000 
 a1 scaling factor         :     0.4535 
 s8 scaling factor         :     1.9435 
 a2 scaling factor         :     4.4752 
 ad hoc parameters k1-k3   :    16.0000     1.3333    -4.0000 

 Edisp/kcal,au: -0.573853883812  -0.000914494277 
 E6   /kcal   :  -0.206252585 
 E8   /kcal   :  -0.367601299 
 % E8         :  64.058344633 

-------------------------   ----------------
Dispersion correction           -0.000914494
-------------------------   ----------------


-------------------------   --------------------
FINAL SINGLE POINT ENERGY      -467.857349926565
-------------------------   --------------------

                                *** OPTIMIZATION RUN DONE ***

                            ***************************************
                            *     ORCA property calculations      *
                            ***************************************

                                    ---------------------
                                    Active property flags
                                    ---------------------
   (+) Dipole Moment


------------------------------------------------------------------------------
                       ORCA ELECTRIC PROPERTIES CALCULATION
------------------------------------------------------------------------------

Dipole Moment Calculation                       ... on
Quadrupole Moment Calculation                   ... off
Polarizability Calculation                      ... off
GBWName                                         ... LiCl_freqopt.gbw
Electron density                                ... LiCl_freqopt.scfp
The origin for moment calculation is the CENTER OF MASS  = (-2.833573,  1.023745  0.000000)

-------------
DIPOLE MOMENT
-------------
                                X             Y             Z
Electronic contribution:      4.35608       0.00000      -0.00000
Nuclear contribution   :     -1.09181       0.00000       0.00000
                        -----------------------------------------
Total Dipole Moment    :      3.26427       0.00000      -0.00000
                        -----------------------------------------
Magnitude (a.u.)       :      3.26427
Magnitude (Debye)      :      8.29711



--------------------
Rotational spectrum 
--------------------
 
Rotational constants in cm-1:     0.000000     0.655659     0.655659 
Rotational constants in MHz :     0.000000 19656.161767 19656.161767 

 Dipole components along the rotational axes: 
x,y,z [a.u.] :     3.264267     0.000000    -0.000000 
x,y,z [Debye]:     8.297108     0.000000    -0.000000 

 

----------------------------------------------------------------------------
                           ORCA NUMERICAL FREQUENCIES
                              (2-process run)
----------------------------------------------------------------------------

Number of atoms                ... 2
Central differences            ... used
Number of displacements        ... 12
Numerical increment            ... 5.000e-03 bohr
IR-spectrum generation         ... on
Raman-spectrum generation      ... off
Surface Crossing Hessian       ... off

The output will be reduced. Please look at the following files:
SCF program output             ... >LiCl_freqopt.lastscf
Integral program output        ... >LiCl_freqopt.lastint
Gradient program output        ... >LiCl_freqopt.lastgrad
Dipole moment program output   ... >LiCl_freqopt.lastmom
AutoCI program output          ... >LiCl_freqopt.lastautoci

	<< Calculating on displaced geometry   2 (of  12) >>
	<< Calculating on displaced geometry   1 (of  12) >>
	<< Calculating on displaced geometry   3 (of  12) >>
	<< Calculating on displaced geometry   4 (of  12) >>
	<< Calculating on displaced geometry   5 (of  12) >>
	<< Calculating on displaced geometry   6 (of  12) >>
	<< Calculating on displaced geometry   7 (of  12) >>
	<< Calculating on displaced geometry   8 (of  12) >>
	<< Calculating on displaced geometry   9 (of  12) >>
	<< Calculating on displaced geometry  10 (of  12) >>
	<< Calculating on displaced geometry  12 (of  12) >>
	<< Calculating on displaced geometry  11 (of  12) >>

-----------------------
VIBRATIONAL FREQUENCIES
-----------------------

Scaling factor for frequencies =  1.000000000 (already applied!)

   0:         0.00 cm**-1
   1:         0.00 cm**-1
   2:         0.00 cm**-1
   3:         0.00 cm**-1
   4:         0.00 cm**-1
   5:       507.44 cm**-1


------------
NORMAL MODES
------------

These modes are the cartesian displacements weighted by the diagonal matrix
M(i,i)=1/sqrt(m[i]) where m[i] is the mass of the displaced atom
Thus, these vectors are normalized but *not* orthogonal

                  0          1          2          3          4          5    
      0       0.000000   0.000000   0.000000   0.000000   0.000000   0.192133
      1       0.000000   0.000000   0.000000   0.000000   0.000000   0.000000
      2       0.000000   0.000000   0.000000   0.000000   0.000000   0.000000
      3       0.000000   0.000000   0.000000   0.000000   0.000000  -0.981369
      4       0.000000   0.000000   0.000000   0.000000   0.000000   0.000000
      5       0.000000   0.000000   0.000000   0.000000   0.000000   0.000000


-----------
IR SPECTRUM
-----------

 Mode   freq       eps      Int      T**2         TX        TY        TZ
       cm**-1   L/(mol*cm) km/mol    a.u.
----------------------------------------------------------------------------
  5:    507.44   0.033777  170.69  0.020772  (-0.144124  0.000000 -0.000000)

* The epsilon (eps) is given for a Dirac delta lineshape.
** The dipole moment derivative (T) already includes vibrational overlap.

The first frequency considered to be a vibration is 5
The total number of vibrations considered is 1


--------------------------
THERMOCHEMISTRY AT 298.15K
--------------------------

Temperature         ... 298.15 K
Pressure            ... 1.00 atm
Total Mass          ... 42.39 AMU
The molecule is recognized as being linear

Throughout the following assumptions are being made:
  (1) The electronic state is orbitally nondegenerate
  (2) There are no thermally accessible electronically excited states
  (3) Hindered rotations indicated by low frequency modes are not
      treated as such but are treated as vibrations and this may
      cause some error
  (4) All equations used are the standard statistical mechanics
      equations for an ideal gas
  (5) All vibrations are strictly harmonic

freq.     507.44  E(vib)   ...       0.14 

------------
INNER ENERGY
------------

The inner energy is: U= E(el) + E(ZPE) + E(vib) + E(rot) + E(trans)
    E(el)   - is the total energy from the electronic structure calculation
              = E(kin-el) + E(nuc-el) + E(el-el) + E(nuc-nuc)
    E(ZPE)  - the the zero temperature vibrational energy from the frequency calculation
    E(vib)  - the the finite temperature correction to E(ZPE) due to population
              of excited vibrational states
    E(rot)  - is the rotational thermal energy
    E(trans)- is the translational thermal energy

Summary of contributions to the inner energy U:
Electronic energy                ...   -467.85734993 Eh
Zero point energy                ...      0.00115604 Eh       0.73 kcal/mol
Thermal vibrational correction   ...      0.00021867 Eh       0.14 kcal/mol
Thermal rotational correction    ...      0.00094418 Eh       0.59 kcal/mol
Thermal translational correction ...      0.00141627 Eh       0.89 kcal/mol
-----------------------------------------------------------------------
Total thermal energy                   -467.85361476 Eh


Summary of corrections to the electronic energy:
(perhaps to be used in another calculation)
Total thermal correction                  0.00257913 Eh       1.62 kcal/mol
Non-thermal (ZPE) correction              0.00115604 Eh       0.73 kcal/mol
-----------------------------------------------------------------------
Total correction                          0.00373516 Eh       2.34 kcal/mol


--------
ENTHALPY
--------

The enthalpy is H = U + kB*T
                kB is Boltzmann's constant
Total free energy                 ...   -467.85361476 Eh 
Thermal Enthalpy correction       ...      0.00094421 Eh       0.59 kcal/mol
-----------------------------------------------------------------------
Total Enthalpy                    ...   -467.85267055 Eh


Note: Rotational entropy computed according to Herzberg 
Infrared and Raman Spectra, Chapter V,1, Van Nostrand Reinhold, 1945 
Point Group:  Cinfv, Symmetry Number:   1  
Rotational constants in cm-1:     0.000000     0.655659     0.655659 

Vibrational entropy computed according to the QRRHO of S. Grimme
Chem.Eur.J. 2012 18 9955


-------
ENTROPY
-------

The entropy contributions are T*S = T*(S(el)+S(vib)+S(rot)+S(trans))
     S(el)   - electronic entropy
     S(vib)  - vibrational entropy
     S(rot)  - rotational entropy
     S(trans)- translational entropy
The entropies will be listed as multiplied by the temperature to get
units of energy

Electronic entropy                ...      0.00000000 Eh      0.00 kcal/mol
Vibrational entropy               ...      0.00030442 Eh      0.19 kcal/mol
Rotational entropy                ...      0.00637882 Eh      4.00 kcal/mol
Translational entropy             ...      0.01765585 Eh     11.08 kcal/mol
-----------------------------------------------------------------------
Final entropy term                ...      0.02433909 Eh     15.27 kcal/mol


-------------------
GIBBS FREE ENERGY
-------------------

The Gibbs free energy is G = H - T*S

Total enthalpy                    ...   -467.85267055 Eh 
Total entropy correction          ...     -0.02433909 Eh    -15.27 kcal/mol
-----------------------------------------------------------------------
Final Gibbs free energy         ...   -467.87700964 Eh

For completeness - the Gibbs free energy minus the electronic energy
G-E(el)                           ...     -0.01965972 Eh    -12.34 kcal/mol



Timings for individual modules:

Sum of individual times         ...      101.193 sec (=   1.687 min)
GTO integral calculation        ...        6.605 sec (=   0.110 min)   6.5 %
SCF iterations                  ...       30.661 sec (=   0.511 min)  30.3 %
SCF Gradient evaluation         ...       12.213 sec (=   0.204 min)  12.1 %
Geometry relaxation             ...        0.504 sec (=   0.008 min)   0.5 %
Numerical frequency calculation ...       51.211 sec (=   0.854 min)  50.6 %
                             ****ORCA TERMINATED NORMALLY****
TOTAL RUN TIME: 0 days 0 hours 1 minutes 42 seconds 283 msec
‘LiCl_freqopt.cpcm’ -> ‘/home/rothe/Calc/Li_Path/THF/LiCl/LiCl_freqopt.cpcm’
‘LiCl_freqopt.densities’ -> ‘/home/rothe/Calc/Li_Path/THF/LiCl/LiCl_freqopt.densities’
‘LiCl_freqopt.engrad’ -> ‘/home/rothe/Calc/Li_Path/THF/LiCl/LiCl_freqopt.engrad’
‘LiCl_freqopt.gbw’ -> ‘/home/rothe/Calc/Li_Path/THF/LiCl/LiCl_freqopt.gbw’
‘LiCl_freqopt.hess’ -> ‘/home/rothe/Calc/Li_Path/THF/LiCl/LiCl_freqopt.hess’
‘LiCl_freqopt.job’ -> ‘/home/rothe/Calc/Li_Path/THF/LiCl/LiCl_freqopt.job’
‘LiCl_freqopt.opt’ -> ‘/home/rothe/Calc/Li_Path/THF/LiCl/LiCl_freqopt.opt’
‘LiCl_freqopt_property.txt’ -> ‘/home/rothe/Calc/Li_Path/THF/LiCl/LiCl_freqopt_property.txt’
‘LiCl_freqopt_trj.xyz’ -> ‘/home/rothe/Calc/Li_Path/THF/LiCl/LiCl_freqopt_trj.xyz’
‘LiCl_freqopt.xyz’ -> ‘/home/rothe/Calc/Li_Path/THF/LiCl/LiCl_freqopt.xyz’
