! Job execution by suborca V 5.02 !
Job started from clu.thch.uni-bonn.de, running /software/cluster/orca_5_0_2_linux_x86-64_openmpi411/orca from /software/cluster/orca_5_0_2_linux_x86-64_openmpi411 on boar231 in /tmp1/rothe/OH_freqopt__K05LDV
Going to copy the following really necessary files:  

                                 *****************
                                 * O   R   C   A *
                                 *****************

                                            #,                                       
                                            ###                                      
                                            ####                                     
                                            #####                                    
                                            ######                                   
                                           ########,                                 
                                     ,,################,,,,,                         
                               ,,#################################,,                 
                          ,,##########################################,,             
                       ,#########################################, ''#####,          
                    ,#############################################,,   '####,        
                  ,##################################################,,,,####,       
                ,###########''''           ''''###############################       
              ,#####''   ,,,,##########,,,,          '''####'''          '####       
            ,##' ,,,,###########################,,,                        '##       
           ' ,,###''''                  '''############,,,                           
         ,,##''                                '''############,,,,        ,,,,,,###''
      ,#''                                            '''#######################'''  
     '                                                          ''''####''''         
             ,#######,   #######,   ,#######,      ##                                
            ,#'     '#,  ##    ##  ,#'     '#,    #''#        ######   ,####,        
            ##       ##  ##   ,#'  ##            #'  '#       #        #'  '#        
            ##       ##  #######   ##           ,######,      #####,   #    #        
            '#,     ,#'  ##    ##  '#,     ,#' ,#      #,         ##   #,  ,#        
             '#######'   ##     ##  '#######'  #'      '#     #####' # '####'        



                  #######################################################
                  #                        -***-                        #
                  #          Department of theory and spectroscopy      #
                  #    Directorship and core code : Frank Neese         #
                  #        Max Planck Institute fuer Kohlenforschung    #
                  #                Kaiser Wilhelm Platz 1               #
                  #                 D-45470 Muelheim/Ruhr               #
                  #                      Germany                        #
                  #                                                     #
                  #                  All rights reserved                #
                  #                        -***-                        #
                  #######################################################


                         Program Version 5.0.2 -  RELEASE  -


 With contributions from (in alphabetic order):
   Daniel Aravena         : Magnetic Suceptibility
   Michael Atanasov       : Ab Initio Ligand Field Theory (pilot matlab implementation)
   Alexander A. Auer      : GIAO ZORA, VPT2 properties, NMR spectrum
   Ute Becker             : Parallelization
   Giovanni Bistoni       : ED, misc. LED, open-shell LED, HFLD
   Martin Brehm           : Molecular dynamics
   Dmytro Bykov           : SCF Hessian
   Vijay G. Chilkuri      : MRCI spin determinant printing, contributions to CSF-ICE
   Dipayan Datta          : RHF DLPNO-CCSD density
   Achintya Kumar Dutta   : EOM-CC, STEOM-CC
   Dmitry Ganyushin       : Spin-Orbit,Spin-Spin,Magnetic field MRCI
   Miquel Garcia          : C-PCM and meta-GGA Hessian, CC/C-PCM, Gaussian charge scheme
   Yang Guo               : DLPNO-NEVPT2, F12-NEVPT2, CIM, IAO-localization
   Andreas Hansen         : Spin unrestricted coupled pair/coupled cluster methods
   Benjamin Helmich-Paris : MC-RPA, TRAH-SCF, COSX integrals
   Lee Huntington         : MR-EOM, pCC
   Robert Izsak           : Overlap fitted RIJCOSX, COSX-SCS-MP3, EOM
   Marcus Kettner         : VPT2
   Christian Kollmar      : KDIIS, OOCD, Brueckner-CCSD(T), CCSD density, CASPT2, CASPT2-K
   Simone Kossmann        : Meta GGA functionals, TD-DFT gradient, OOMP2, MP2 Hessian
   Martin Krupicka        : Initial AUTO-CI
   Lucas Lang             : DCDCAS
   Marvin Lechner         : AUTO-CI (C++ implementation), FIC-MRCC
   Dagmar Lenk            : GEPOL surface, SMD
   Dimitrios Liakos       : Extrapolation schemes; Compound Job, initial MDCI parallelization
   Dimitrios Manganas     : Further ROCIS development; embedding schemes
   Dimitrios Pantazis     : SARC Basis sets
   Anastasios Papadopoulos: AUTO-CI, single reference methods and gradients
   Taras Petrenko         : DFT Hessian,TD-DFT gradient, ASA, ECA, R-Raman, ABS, FL, XAS/XES, NRVS
   Peter Pinski           : DLPNO-MP2, DLPNO-MP2 Gradient
   Christoph Reimann      : Effective Core Potentials
   Marius Retegan         : Local ZFS, SOC
   Christoph Riplinger    : Optimizer, TS searches, QM/MM, DLPNO-CCSD(T), (RO)-DLPNO pert. Triples
   Tobias Risthaus        : Range-separated hybrids, TD-DFT gradient, RPA, STAB
   Michael Roemelt        : Original ROCIS implementation
   Masaaki Saitow         : Open-shell DLPNO-CCSD energy and density
   Barbara Sandhoefer     : DKH picture change effects
   Avijit Sen             : IP-ROCIS
   Kantharuban Sivalingam : CASSCF convergence, NEVPT2, FIC-MRCI
   Bernardo de Souza      : ESD, SOC TD-DFT
   Georgi Stoychev        : AutoAux, RI-MP2 NMR, DLPNO-MP2 response
   Willem Van den Heuvel  : Paramagnetic NMR
   Boris Wezisla          : Elementary symmetry handling
   Frank Wennmohs         : Technical directorship


 We gratefully acknowledge several colleagues who have allowed us to
 interface, adapt or use parts of their codes:
   Stefan Grimme, W. Hujo, H. Kruse, P. Pracht,  : VdW corrections, initial TS optimization,
                  C. Bannwarth, S. Ehlert          DFT functionals, gCP, sTDA/sTD-DF
   Ed Valeev, F. Pavosevic, A. Kumar             : LibInt (2-el integral package), F12 methods
   Garnet Chan, S. Sharma, J. Yang, R. Olivares  : DMRG
   Ulf Ekstrom                                   : XCFun DFT Library
   Mihaly Kallay                                 : mrcc  (arbitrary order and MRCC methods)
   Jiri Pittner, Ondrej Demel                    : Mk-CCSD
   Frank Weinhold                                : gennbo (NPA and NBO analysis)
   Christopher J. Cramer and Donald G. Truhlar   : smd solvation model
   Lars Goerigk                                  : TD-DFT with DH, B97 family of functionals
   V. Asgeirsson, H. Jonsson                     : NEB implementation
   FAccTs GmbH                                   : IRC, NEB, NEB-TS, DLPNO-Multilevel, CI-OPT
                                                   MM, QMMM, 2- and 3-layer-ONIOM, Crystal-QMMM,
                                                   LR-CPCM, SF, NACMEs, symmetry and pop. for TD-DFT,
                                                   nearIR, NL-DFT gradient (VV10), updates on ESD,
                                                   ML-optimized integration grids
   S Lehtola, MJT Oliveira, MAL Marques          : LibXC Library
   Liviu Ungur et al                             : ANISO software


 Your calculation uses the libint2 library for the computation of 2-el integrals
 For citations please refer to: http://libint.valeyev.net

 Your ORCA version has been built with support for libXC version: 5.1.0
 For citations please refer to: https://tddft.org/programs/libxc/

 This ORCA versions uses:
   CBLAS   interface :  Fast vector & matrix operations
   LAPACKE interface :  Fast linear algebra routines
   SCALAPACK package :  Parallel linear algebra routines
   Shared memory     :  Shared parallel matrices
   BLAS/LAPACK       :  OpenBLAS 0.3.15  USE64BITINT DYNAMIC_ARCH NO_AFFINITY Barcelona SINGLE_THREADED
        Core in use  :  Barcelona
   Copyright (c) 2011-2014, The OpenBLAS Project


Your calculation utilizes the atom-pairwise dispersion correction
with the Becke-Johnson damping scheme (D3BJ)
Cite in your paper:
S.Grimme, S.Ehrlich, L.Goerigk, J Comput Chem, (2011), 32, 1456–1465 
S.Grimme, J.Antony, S.Ehrlich and H.Krieg, J.Chem.Phys., 132, (2010), 154104 
   

================================================================================

----- Orbital basis set information -----
Your calculation utilizes the basis: def2-TZVP
   F. Weigend and R. Ahlrichs, Phys. Chem. Chem. Phys. 7, 3297 (2005).

----- AuxJ basis set information -----
Your calculation utilizes the auxiliary basis: def2/J
   F. Weigend, Phys. Chem. Chem. Phys. 8, 1057 (2006).

================================================================================
                                        WARNINGS
                       Please study these warnings very carefully!
================================================================================


WARNING: Geometry Optimization
  ===> : Switching off AutoStart
         For restart on a previous wavefunction, please use MOREAD

INFO   : the flag for use of the SHARK integral package has been found!

================================================================================
                                       INPUT FILE
================================================================================
NAME = OH_freqopt.inp
|  1> ! TPSS D3BJ def2-TZVP RI def2/J CPCM(THF)
|  2> ! Opt numfreq Pal2
|  3> 
|  4> * xyz -1 1
|  5> O       -2.9259660282      1.3263723730      0.0000000000                 
|  6> H       -3.2492958399      0.4934487306      0.3776189068                 
|  7> *
|  8> 
|  9>                          ****END OF INPUT****
================================================================================

                       *****************************
                       * Geometry Optimization Run *
                       *****************************

Geometry optimization settings:
Update method            Update   .... BFGS
Choice of coordinates    CoordSys .... Z-matrix Internals
Initial Hessian          InHess   .... Almoef's Model

Convergence Tolerances:
Energy Change            TolE     ....  5.0000e-06 Eh
Max. Gradient            TolMAXG  ....  3.0000e-04 Eh/bohr
RMS Gradient             TolRMSG  ....  1.0000e-04 Eh/bohr
Max. Displacement        TolMAXD  ....  4.0000e-03 bohr
RMS Displacement         TolRMSD  ....  2.0000e-03 bohr
Strict Convergence                ....  False
------------------------------------------------------------------------------
                        ORCA OPTIMIZATION COORDINATE SETUP
------------------------------------------------------------------------------

The optimization will be done in new redundant internal coordinates
Making redundant internal coordinates   ...  (new redundants) done
Evaluating the initial hessian          ...  (Almloef) done
Evaluating the coordinates              ...  done
Calculating the B-matrix                .... done
Calculating the G-matrix                .... done
Diagonalizing the G-matrix              .... done
The first mode is                       ....    0
The number of degrees of freedom        ....    1

    -----------------------------------------------------------------
                    Redundant Internal Coordinates


    -----------------------------------------------------------------
         Definition                    Initial Value    Approx d2E/dq
    -----------------------------------------------------------------
      1. B(H   1,O   0)                  0.9700         0.501202   
    -----------------------------------------------------------------

Number of atoms                         .... 2
Number of degrees of freedom            .... 1

         *************************************************************
         *                GEOMETRY OPTIMIZATION CYCLE   1            *
         *************************************************************
---------------------------------
CARTESIAN COORDINATES (ANGSTROEM)
---------------------------------
  O     -2.925966    1.326372    0.000000
  H     -3.249296    0.493449    0.377619

----------------------------
CARTESIAN COORDINATES (A.U.)
----------------------------
  NO LB      ZA    FRAG     MASS         X           Y           Z
   0 O     8.0000    0    15.999   -5.529274    2.506481    0.000000
   1 H     1.0000    0     1.008   -6.140279    0.932483    0.713596

--------------------------------
INTERNAL COORDINATES (ANGSTROEM)
--------------------------------
 O      0   0   0     0.000000000000     0.00000000     0.00000000
 H      1   0   0     0.969999999987     0.00000000     0.00000000

---------------------------
INTERNAL COORDINATES (A.U.)
---------------------------
 O      0   0   0     0.000000000000     0.00000000     0.00000000
 H      1   0   0     1.833034349880     0.00000000     0.00000000

---------------------
BASIS SET INFORMATION
---------------------
There are 2 groups of distinct atoms

 Group   1 Type O   : 11s6p2d1f contracted to 5s3p2d1f pattern {62111/411/11/1}
 Group   2 Type H   : 5s1p contracted to 3s1p pattern {311/1}

Atom   0O    basis set group =>   1
Atom   1H    basis set group =>   2
---------------------------------
AUXILIARY/J BASIS SET INFORMATION
---------------------------------
There are 2 groups of distinct atoms

 Group   1 Type O   : 12s5p4d2f1g contracted to 6s4p3d1f1g pattern {711111/2111/211/2/1}
 Group   2 Type H   : 5s2p1d contracted to 3s1p1d pattern {311/2/1}

Atom   0O    basis set group =>   1
Atom   1H    basis set group =>   2


           ************************************************************
           *        Program running with 2 parallel MPI-processes     *
           *              working on a common directory               *
           ************************************************************
------------------------------------------------------------------------------
                           ORCA GTO INTEGRAL CALCULATION
                           -- RI-GTO INTEGRALS CHOSEN --
------------------------------------------------------------------------------
------------------------------------------------------------------------------
                   ___                                                        
                  /   \      - P O W E R E D   B Y -                         
                 /     \                                                     
                 |  |  |   _    _      __       _____    __    __             
                 |  |  |  | |  | |    /  \     |  _  \  |  |  /  |          
                  \  \/   | |  | |   /    \    | | | |  |  | /  /          
                 / \  \   | |__| |  /  /\  \   | |_| |  |  |/  /          
                |  |  |   |  __  | /  /__\  \  |    /   |      \           
                |  |  |   | |  | | |   __   |  |    \   |  |\   \          
                \     /   | |  | | |  |  |  |  | |\  \  |  | \   \       
                 \___/    |_|  |_| |__|  |__|  |_| \__\ |__|  \__/        
                                                                              
                      - O R C A' S   B I G   F R I E N D -                    
                                      &                                       
                       - I N T E G R A L  F E E D E R -                       
                                                                              
 v1 FN, 2020, v2 2021                                                         
------------------------------------------------------------------------------


Reading SHARK input file OH_freqopt.SHARKINP.tmp ... ok
----------------------
SHARK INTEGRAL PACKAGE
----------------------

Number of atoms                             ...      2
Number of basis functions                   ...     37
Number of shells                            ...     15
Maximum angular momentum                    ...      3
Integral batch strategy                     ... SHARK/LIBINT Hybrid
RI-J (if used) integral strategy            ... SPLIT-RIJ (Revised 2003 algorithm where possible)
Printlevel                                  ...      1
Contraction scheme used                     ... SEGMENTED contraction
Coulomb Range Separation                    ... NOT USED
Exchange Range Separation                   ... NOT USED
Finite Nucleus Model                        ... NOT USED
Auxiliary Coulomb fitting basis             ... AVAILABLE
   # of basis functions in Aux-J            ...     60
   # of shells in Aux-J                     ...     20
   Maximum angular momentum in Aux-J        ...      4
Auxiliary J/K fitting basis                 ... NOT available
Auxiliary Correlation fitting basis         ... NOT available
Auxiliary 'external' fitting basis          ... NOT available
Integral threshold                          ...     2.500000e-11
Primitive cut-off                           ...     2.500000e-12
Primitive pair pre-selection threshold      ...     2.500000e-12

Calculating pre-screening integrals         ... done (  0.1 sec) Dimension = 15
Organizing shell pair data                  ... done (  0.0 sec)
Shell pair information
Total number of shell pairs                 ...       120
Shell pairs after pre-screening             ...       120
Total number of primitive shell pairs       ...       376
Primitive shell pairs kept                  ...       367
          la=0 lb=0:     36 shell pairs
          la=1 lb=0:     32 shell pairs
          la=1 lb=1:     10 shell pairs
          la=2 lb=0:     16 shell pairs
          la=2 lb=1:      8 shell pairs
          la=2 lb=2:      3 shell pairs
          la=3 lb=0:      8 shell pairs
          la=3 lb=1:      4 shell pairs
          la=3 lb=2:      2 shell pairs
          la=3 lb=3:      1 shell pairs

Calculating one electron integrals          ... done (  0.0 sec)
Calculating RI/J V-Matrix + Cholesky decomp.... done (  0.0 sec)
Calculating Nuclear repulsion               ... done (  0.0 sec) ENN=      4.364348109747 Eh

SHARK setup successfully completed in   0.3 seconds

Maximum memory used throughout the entire GTOINT-calculation: 13.8 MB


           ************************************************************
           *        Program running with 2 parallel MPI-processes     *
           *              working on a common directory               *
           ************************************************************
-------------------------------------------------------------------------------
                                 ORCA SCF
-------------------------------------------------------------------------------

------------
SCF SETTINGS
------------
Hamiltonian:
 Density Functional     Method          .... DFT(GTOs)
 Exchange Functional    Exchange        .... TPSS
 Correlation Functional Correlation     .... TPSS
 LDA part of GGA corr.  LDAOpt          .... PW91-LDA
 Gradients option       PostSCFGGA      .... off
   Density functional embedding theory  .... OFF
   NL short-range parameter             ....  5.000000
 RI-approximation to the Coulomb term is turned on
   Number of AuxJ basis functions       .... 60


General Settings:
 Integral files         IntName         .... OH_freqopt
 Hartree-Fock type      HFTyp           .... RHF
 Total Charge           Charge          ....   -1
 Multiplicity           Mult            ....    1
 Number of Electrons    NEL             ....   10
 Basis Dimension        Dim             ....   37
 Nuclear Repulsion      ENuc            ....      4.3643481097 Eh

Convergence Acceleration:
 DIIS                   CNVDIIS         .... on
   Start iteration      DIISMaxIt       ....    12
   Startup error        DIISStart       ....  0.200000
   # of expansion vecs  DIISMaxEq       ....     5
   Bias factor          DIISBfac        ....   1.050
   Max. coefficient     DIISMaxC        ....  10.000
 Trust-Rad. Augm. Hess. CNVTRAH         .... auto
   Auto Start mean grad. ratio tolernc. ....  1.125000
   Auto Start start iteration           ....    20
   Auto Start num. interpolation iter.  ....    10
   Max. Number of Micro iterations      ....    16
   Max. Number of Macro iterations      .... Maxiter - #DIIS iter
   Number of Davidson start vectors     ....     2
   Converg. threshold I  (grad. norm)   ....   1.000e-05
   Converg. threshold II (energy diff.) ....   1.000e-08
   Grad. Scal. Fac. for Micro threshold ....   0.100
   Minimum threshold for Micro iter.    ....   0.010
   NR start threshold (gradient norm)   ....   0.001
   Initial trust radius                 ....   0.400
   Minimum AH scaling param. (alpha)    ....   1.000
   Maximum AH scaling param. (alpha)    .... 1000.000
   Orbital update algorithm             .... Taylor
   White noise on init. David. guess    .... on
   Maximum white noise                  ....   0.010
   Quad. conv. algorithm                .... NR
 SOSCF                  CNVSOSCF        .... on
   Start iteration      SOSCFMaxIt      ....   150
   Startup grad/error   SOSCFStart      ....  0.003300
 Level Shifting         CNVShift        .... on
   Level shift para.    LevelShift      ....    0.2500
   Turn off err/grad.   ShiftErr        ....    0.0010
 Zerner damping         CNVZerner       .... off
 Static damping         CNVDamp         .... on
   Fraction old density DampFac         ....    0.7000
   Max. Damping (<1)    DampMax         ....    0.9800
   Min. Damping (>=0)   DampMin         ....    0.0000
   Turn off err/grad.   DampErr         ....    0.1000
 Fernandez-Rico         CNVRico         .... off

SCF Procedure:
 Maximum # iterations   MaxIter         ....   125
 SCF integral mode      SCFMode         .... Direct
   Integral package                     .... SHARK and LIBINT hybrid scheme
 Reset frequency        DirectResetFreq ....    20
 Integral Threshold     Thresh          ....  2.500e-11 Eh
 Primitive CutOff       TCut            ....  2.500e-12 Eh

Convergence Tolerance:
 Convergence Check Mode ConvCheckMode   .... Total+1el-Energy
 Convergence forced     ConvForced      .... 0
 Energy Change          TolE            ....  1.000e-08 Eh
 1-El. energy change                    ....  1.000e-05 Eh
 Orbital Gradient       TolG            ....  1.000e-05
 Orbital Rotation angle TolX            ....  1.000e-05
 DIIS Error             TolErr          ....  5.000e-07


Diagonalization of the overlap matrix:
Smallest eigenvalue                        ... 1.048e-02
Time for diagonalization                   ...    0.002 sec
Threshold for overlap eigenvalues          ... 1.000e-08
Number of eigenvalues below threshold      ... 0
Time for construction of square roots      ...    0.001 sec
Total time needed                          ...    0.003 sec

Time for model grid setup =    0.026 sec

------------------------------
INITIAL GUESS: MODEL POTENTIAL
------------------------------
Loading Hartree-Fock densities                     ... done
Calculating cut-offs                               ... done
Initializing the effective Hamiltonian             ... done
Setting up the integral package (SHARK)            ... done
Starting the Coulomb interaction                   ... done (   0.0 sec)
Reading the grid                                   ... done
Mapping shells                                     ... done
Starting the XC term evaluation                    ... done (   0.0 sec)
  promolecular density results
     # of electrons  =      8.999628990
     EX              =     -8.368304591
     EC              =     -0.280205364
     EX+EC           =     -8.648509956
Transforming the Hamiltonian                       ... done (   0.0 sec)
Diagonalizing the Hamiltonian                      ... done (   0.0 sec)
Back transforming the eigenvectors                 ... done (   0.0 sec)
Now organizing SCF variables                       ... done
                      ------------------
                      INITIAL GUESS DONE (   0.0 sec)
                      ------------------
-------------------
DFT GRID GENERATION
-------------------

General Integration Accuracy     IntAcc      ... 4.388
Radial Grid Type                 RadialGrid  ... OptM3 with GC (2021)
Angular Grid (max. ang.)         AngularGrid ... 4 (Lebedev-302)
Angular grid pruning method      GridPruning ... 4 (adaptive)
Weight generation scheme         WeightScheme... Becke
Basis function cutoff            BFCut       ... 1.0000e-11
Integration weight cutoff        WCut        ... 1.0000e-14
Angular grids for H and He will be reduced by one unit
Partially contracted basis set               ... off
Rotationally invariant grid construction     ... off

Total number of grid points                  ...     9460
Total number of batches                      ...      149
Average number of points per batch           ...       63
Average number of grid points per atom       ...     4730
Time for grid setup =    0.069 sec


--------------------
CPCM SOLVATION MODEL
--------------------
CPCM parameters:
  Epsilon                                         ...       7.2500
  Refrac                                          ...       1.4070
  Rsolv                                           ...       1.3000
  Surface type                                    ... GAUSSIAN VDW
  Epsilon function type                           ...         CPCM
Radii:
 Radius for O  used is    3.4469 Bohr (=   1.8240 Ang.)
 Radius for H  used is    2.4944 Bohr (=   1.3200 Ang.)
Calculating surface                               ...        done! (  0.0s)
GEPOL surface points                              ...          176
GEPOL Volume                                      ...     181.6334
GEPOL Surface-area                                ...     156.4569
Calculating surface distance matrix               ...        done! (  0.0s)
Performing Cholesky decomposition & store         ...        done! (  0.0s)
Overall time for CPCM initialization              ...                 0.0s
--------------
SCF ITERATIONS
--------------
ITER       Energy         Delta-E        Max-DP      RMS-DP      [F,P]     Damp
               ***  Starting incremental Fock matrix formation  ***
  0    -75.7046426066   0.000000000000 0.15873609  0.01067188  0.5065546 0.7000
  1    -75.8276607212  -0.123018114631 0.08099205  0.00574317  0.1532550 0.7000
                               ***Turning on DIIS***
  2    -75.8551269111  -0.027466189858 0.05396138  0.00468210  0.0216849 0.0000
  3    -75.9295415871  -0.074414675986 0.04116496  0.00283087  0.0816105 0.0000
  4    -75.9353740348  -0.005832447762 0.00752681  0.00061099  0.0058964 0.0000
                      *** Initiating the SOSCF procedure ***
                           *** Shutting down DIIS ***
                      *** Re-Reading the Fockian *** 
                      *** Removing any level shift *** 
ITER      Energy       Delta-E        Grad      Rot      Max-DP    RMS-DP
  5    -75.93548383  -0.0001098000  0.001095  0.001095  0.002688  0.000179
               *** Restarting incremental Fock matrix formation ***
  6    -75.93549125  -0.0000074133  0.000506  0.001505  0.002055  0.000133
  7    -75.93549259  -0.0000013409  0.000236  0.000304  0.000569  0.000046
  8    -75.93549237   0.0000002200  0.000298  0.000301  0.000456  0.000035
  9    -75.93549282  -0.0000004470  0.000004  0.000008  0.000012  0.000001
                 **** Energy Check signals convergence ****
              ***Rediagonalizing the Fockian in SOSCF/NRSCF***

               *****************************************************
               *                     SUCCESS                       *
               *           SCF CONVERGED AFTER  10 CYCLES          *
               *****************************************************


----------------
TOTAL SCF ENERGY
----------------

Total Energy       :          -75.93549282 Eh           -2066.30981 eV

Components:
Nuclear Repulsion  :            4.36434811 Eh             118.75995 eV
Electronic Energy  :          -80.29984093 Eh           -2185.06976 eV
One Electron Energy:         -116.79298976 Eh           -3178.09882 eV
Two Electron Energy:           36.49314884 Eh             993.02906 eV
CPCM Dielectric    :           -0.12649061 Eh              -3.44198 eV

Virial components:
Potential Energy   :         -151.62437052 Eh           -4125.90888 eV
Kinetic Energy     :           75.68887771 Eh            2059.59907 eV
Virial Ratio       :            2.00325827


DFT components:
N(Alpha)           :        5.000001177024 electrons
N(Beta)            :        5.000001177024 electrons
N(Total)           :       10.000002354048 electrons
E(X)               :       -8.873718536967 Eh       
E(C)               :       -0.322412248521 Eh       
E(XC)              :       -9.196130785488 Eh       
DFET-embed. en.    :        0.000000000000 Eh       
CPCM Solvation Model Properties:
Surface-charge          :            0.98146737
Charge-correction       :           -0.00379997 Eh              -0.10340 eV
Free-energy (cav+disp)  :  This term is not implemented in the current solvation scheme

---------------
SCF CONVERGENCE
---------------

  Last Energy change         ...   -8.5592e-11  Tolerance :   1.0000e-08
  Last MAX-Density change    ...    1.2990e-06  Tolerance :   1.0000e-07
  Last RMS-Density change    ...    8.6501e-08  Tolerance :   5.0000e-09
  Last Orbital Gradient      ...    1.0741e-06  Tolerance :   1.0000e-05
  Last Orbital Rotation      ...    7.1065e-07  Tolerance :   1.0000e-05

             **** THE GBW FILE WAS UPDATED (OH_freqopt.gbw) ****
             **** DENSITY OH_freqopt.scfp WAS UPDATED ****
             **** ENERGY FILE WAS UPDATED (OH_freqopt.en.tmp) ****
             **** THE GBW FILE WAS UPDATED (OH_freqopt.gbw) ****
             **** DENSITY OH_freqopt.scfp WAS UPDATED ****
----------------
ORBITAL ENERGIES
----------------

  NO   OCC          E(Eh)            E(eV) 
   0   2.0000     -18.695696      -508.7357 
   1   2.0000      -0.714608       -19.4455 
   2   2.0000      -0.237810        -6.4711 
   3   2.0000      -0.100556        -2.7363 
   4   2.0000      -0.100551        -2.7361 
   5   0.0000       0.098259         2.6738 
   6   0.0000       0.450277        12.2527 
   7   0.0000       0.484870        13.1940 
   8   0.0000       0.493096        13.4178 
   9   0.0000       0.493107        13.4181 
  10   0.0000       0.642040        17.4708 
  11   0.0000       1.348778        36.7021 
  12   0.0000       1.348796        36.7026 
  13   0.0000       1.597274        43.4640 
  14   0.0000       1.597277        43.4641 
  15   0.0000       1.696161        46.1549 
  16   0.0000       2.184775        59.4507 
  17   0.0000       2.184788        59.4511 
  18   0.0000       2.244383        61.0728 
  19   0.0000       2.648407        72.0668 
  20   0.0000       2.680636        72.9438 
  21   0.0000       2.680646        72.9441 
  22   0.0000       2.822248        76.7973 
  23   0.0000       3.837670       104.4283 
  24   0.0000       5.295155       144.0885 
  25   0.0000       5.295156       144.0885 
  26   0.0000       5.332773       145.1121 
  27   0.0000       5.332781       145.1124 
  28   0.0000       5.555717       151.1788 
  29   0.0000       5.555726       151.1790 
  30   0.0000       6.269462       170.6007 
  31   0.0000       6.342213       172.5804 
  32   0.0000       6.342268       172.5819 
  33   0.0000       6.468068       176.0051 
  34   0.0000       6.468087       176.0056 
  35   0.0000       7.109536       193.4603 
  36   0.0000      43.189103      1175.2352 

                    ********************************
                    * MULLIKEN POPULATION ANALYSIS *
                    ********************************

-----------------------
MULLIKEN ATOMIC CHARGES
-----------------------
   0 O :   -1.244593
   1 H :    0.244593
Sum of atomic charges:   -1.0000000

--------------------------------
MULLIKEN REDUCED ORBITAL CHARGES
--------------------------------
  0 O s       :     3.921716  s :     3.921716
      pz      :     1.886170  p :     5.311261
      px      :     1.911907
      py      :     1.513185
      dz2     :     0.001057  d :     0.010692
      dxz     :     0.000645
      dyz     :     0.003332
      dx2y2   :     0.002999
      dxy     :     0.002659
      f0      :     0.000148  f :     0.000923
      f+1     :     0.000009
      f-1     :     0.000061
      f+2     :     0.000189
      f-2     :     0.000162
      f+3     :     0.000252
      f-3     :     0.000101
  1 H s       :     0.708769  s :     0.708769
      pz      :     0.015888  p :     0.046639
      px      :     0.015962
      py      :     0.014789


                     *******************************
                     * LOEWDIN POPULATION ANALYSIS *
                     *******************************

----------------------
LOEWDIN ATOMIC CHARGES
----------------------
   0 O :   -1.065052
   1 H :    0.065052

-------------------------------
LOEWDIN REDUCED ORBITAL CHARGES
-------------------------------
  0 O s       :     3.697677  s :     3.697677
      pz      :     1.874496  p :     5.348345
      px      :     1.894910
      py      :     1.578938
      dz2     :     0.001369  d :     0.017517
      dxz     :     0.000911
      dyz     :     0.005809
      dx2y2   :     0.005116
      dxy     :     0.004313
      f0      :     0.000288  f :     0.001513
      f+1     :     0.000004
      f-1     :     0.000025
      f+2     :     0.000337
      f-2     :     0.000282
      f+3     :     0.000464
      f-3     :     0.000114
  1 H s       :     0.757193  s :     0.757193
      pz      :     0.053530  p :     0.177755
      px      :     0.052255
      py      :     0.071970


                      *****************************
                      * MAYER POPULATION ANALYSIS *
                      *****************************

  NA   - Mulliken gross atomic population
  ZA   - Total nuclear charge
  QA   - Mulliken gross atomic charge
  VA   - Mayer's total valence
  BVA  - Mayer's bonded valence
  FA   - Mayer's free valence

  ATOM       NA         ZA         QA         VA         BVA        FA
  0 O      9.2446     8.0000    -1.2446     0.9533     0.9533     0.0000
  1 H      0.7554     1.0000     0.2446     0.9533     0.9533     0.0000

  Mayer bond orders larger than 0.100000
B(  0-O ,  1-H ) :   0.9533 

-------
TIMINGS
-------

Total SCF time: 0 days 0 hours 0 min 2 sec 

Total time                  ....       2.789 sec
Sum of individual times     ....       2.537 sec  ( 91.0%)

Fock matrix formation       ....       2.399 sec  ( 86.0%)
  Split-RI-J                ....       0.078 sec  (  3.2% of F)
  XC integration            ....       0.776 sec  ( 32.4% of F)
    Basis function eval.    ....       0.123 sec  ( 15.8% of XC)
    Density eval.           ....       0.160 sec  ( 20.6% of XC)
    XC-Functional eval.     ....       0.252 sec  ( 32.5% of XC)
    XC-Potential eval.      ....       0.142 sec  ( 18.3% of XC)
Diagonalization             ....       0.008 sec  (  0.3%)
Density matrix formation    ....       0.001 sec  (  0.0%)
Population analysis         ....       0.002 sec  (  0.1%)
Initial guess               ....       0.016 sec  (  0.6%)
Orbital Transformation      ....       0.000 sec  (  0.0%)
Orbital Orthonormalization  ....       0.000 sec  (  0.0%)
DIIS solution               ....       0.009 sec  (  0.3%)
SOSCF solution              ....       0.006 sec  (  0.2%)
Grid generation             ....       0.095 sec  (  3.4%)

Maximum memory used throughout the entire SCF-calculation: 5.9 MB


-------------------------------------------------------------------------------
                          DFT DISPERSION CORRECTION                            
                                                                               
                              DFTD3 V3.1  Rev 1                                
                          USING Becke-Johnson damping                          
-------------------------------------------------------------------------------
The TPSS functional is recognized
Active option DFTDOPT                   ...         4   

molecular C6(AA) [au] = 28.146487 


            DFT-D V3
 parameters
 s6 scaling factor         :     1.0000 
 a1 scaling factor         :     0.4535 
 s8 scaling factor         :     1.9435 
 a2 scaling factor         :     4.4752 
 ad hoc parameters k1-k3   :    16.0000     1.3333    -4.0000 

 Edisp/kcal,au: -0.112253888634  -0.000178887939 
 E6   /kcal   :  -0.063305363 
 E8   /kcal   :  -0.048948526 
 % E8         :  43.605193651 

-------------------------   ----------------
Dispersion correction           -0.000178888
-------------------------   ----------------


-------------------------   --------------------
FINAL SINGLE POINT ENERGY       -75.935671704061
-------------------------   --------------------



           ************************************************************
           *        Program running with 2 parallel MPI-processes     *
           *              working on a common directory               *
           ************************************************************
------------------------------------------------------------------------------
                         ORCA SCF GRADIENT CALCULATION
------------------------------------------------------------------------------

Gradient of the Kohn-Sham DFT energy:
Kohn-Sham wavefunction type      ... RKS
Hartree-Fock exchange scaling    ...    0.000
Number of operators              ...    1
Number of atoms                  ...    2
Basis set dimensions             ...   37
Integral neglect threshold       ... 2.5e-11
Integral primitive cutoff        ... 2.5e-12
SHARK Integral package           ... ON

Nuc. rep. gradient       (SHARK) ... done (  0.0 sec)
HCore & Overlap gradient (SHARK) ... done (  0.0 sec)
RI-J gradient            (SHARK) ... done (  0.1 sec)
Exchange-correlation gradient    ... done
Dispersion correction            ... done

------------------
CARTESIAN GRADIENT
------------------

   1   O   :   -0.000714463   -0.001843674    0.000947932
   2   H   :    0.000714463    0.001843674   -0.000947932

Difference to translation invariance:
           :   -0.0000000000    0.0000000000    0.0000000000

Difference to rotation invariance:
           :    0.0001764039   -0.0000693527   -0.0000019302

Norm of the cartesian gradient     ...    0.0031010213
RMS gradient                       ...    0.0012659867
MAX gradient                       ...    0.0018436740

-------
TIMINGS
-------

Total SCF gradient time            ...        0.656 sec

One electron gradient       ....       0.008 sec  (  1.1%)
RI-J Coulomb gradient       ....       0.128 sec  ( 19.5%)
XC gradient                 ....       0.114 sec  ( 17.4%)
CPCM gradient               ....       0.100 sec  ( 15.2%)
   A-Matrix (El+Nuc)        ....       0.002 sec  (  0.4%)
   Potential                ....       0.098 sec  ( 14.9%)

Maximum memory used throughout the entire SCFGRAD-calculation: 25.3 MB
------------------------------------------------------------------------------
                         ORCA GEOMETRY RELAXATION STEP
------------------------------------------------------------------------------

Reading the OPT-File                    .... done
Getting information on internals        .... done
Copying old internal coords+grads       .... done
Making the new internal coordinates     .... (new redundants).... done
Validating the new internal coordinates .... (new redundants).... done
Calculating the B-matrix                .... done
Calculating the G,G- and P matrices     .... done
Transforming gradient to internals      .... done
Projecting the internal gradient        .... done
Number of atoms                         ....   2
Number of internal coordinates          ....   1
Current Energy                          ....   -75.935671704 Eh
Current gradient norm                   ....     0.003101021 Eh/bohr
Maximum allowed component of the step   ....  0.300
Current trust radius                    ....  0.300
Evaluating the initial hessian          ....  (Almloef) done
Projecting the Hessian                  .... done
Forming the augmented Hessian           .... done
Diagonalizing the augmented Hessian     .... done
Last element of RFO vector              ....  0.999990452
Lowest eigenvalues of augmented Hessian:
 -0.000009572
Length of the computed step             ....  0.004370042
The final length of the internal step   ....  0.004370042
Converting the step to cartesian space:
 Initial RMS(Int)=    0.0043700417
Transforming coordinates:
 Iter   0:  RMS(Cart)=    0.0012615224 RMS(Int)=    0.0043700417
 Iter   1:  RMS(Cart)=    0.0000000000 RMS(Int)=    0.0000000000
done
Storing new coordinates                 .... done

                                .--------------------.
          ----------------------|Geometry convergence|-------------------------
          Item                value                   Tolerance       Converged
          ---------------------------------------------------------------------
          RMS gradient        0.0021903134            0.0001000000      NO
          MAX gradient        0.0021903134            0.0003000000      NO
          RMS step            0.0043700417            0.0020000000      NO
          MAX step            0.0043700417            0.0040000000      NO
          ........................................................
          Max(Bonds)      0.0023      Max(Angles)    0.00
          Max(Dihed)        0.00      Max(Improp)    0.00
          ---------------------------------------------------------------------

The optimization has not yet converged - more geometry cycles are needed


    ---------------------------------------------------------------------------
                         Redundant Internal Coordinates
                            (Angstroem and degrees)

        Definition                    Value    dE/dq     Step     New-Value
    ----------------------------------------------------------------------------
     1. B(H   1,O   0)                0.9700 -0.002190  0.0023    0.9723   
    ----------------------------------------------------------------------------

         *************************************************************
         *                GEOMETRY OPTIMIZATION CYCLE   2            *
         *************************************************************
---------------------------------
CARTESIAN COORDINATES (ANGSTROEM)
---------------------------------
  O     -2.925581    1.327365   -0.000450
  H     -3.249681    0.492456    0.378069

----------------------------
CARTESIAN COORDINATES (A.U.)
----------------------------
  NO LB      ZA    FRAG     MASS         X           Y           Z
   0 O     8.0000    0    15.999   -5.528546    2.508357   -0.000851
   1 H     1.0000    0     1.008   -6.141008    0.930607    0.714447

--------------------------------
INTERNAL COORDINATES (ANGSTROEM)
--------------------------------
 O      0   0   0     0.000000000000     0.00000000     0.00000000
 H      1   0   0     0.972312526467     0.00000000     0.00000000

---------------------------
INTERNAL COORDINATES (A.U.)
---------------------------
 O      0   0   0     0.000000000000     0.00000000     0.00000000
 H      1   0   0     1.837404391604     0.00000000     0.00000000



           ************************************************************
           *        Program running with 2 parallel MPI-processes     *
           *              working on a common directory               *
           ************************************************************
------------------------------------------------------------------------------
                   ___                                                        
                  /   \      - P O W E R E D   B Y -                         
                 /     \                                                     
                 |  |  |   _    _      __       _____    __    __             
                 |  |  |  | |  | |    /  \     |  _  \  |  |  /  |          
                  \  \/   | |  | |   /    \    | | | |  |  | /  /          
                 / \  \   | |__| |  /  /\  \   | |_| |  |  |/  /          
                |  |  |   |  __  | /  /__\  \  |    /   |      \           
                |  |  |   | |  | | |   __   |  |    \   |  |\   \          
                \     /   | |  | | |  |  |  |  | |\  \  |  | \   \       
                 \___/    |_|  |_| |__|  |__|  |_| \__\ |__|  \__/        
                                                                              
                      - O R C A' S   B I G   F R I E N D -                    
                                      &                                       
                       - I N T E G R A L  F E E D E R -                       
                                                                              
 v1 FN, 2020, v2 2021                                                         
------------------------------------------------------------------------------


Reading SHARK input file OH_freqopt.SHARKINP.tmp ... ok
----------------------
SHARK INTEGRAL PACKAGE
----------------------

Number of atoms                             ...      2
Number of basis functions                   ...     37
Number of shells                            ...     15
Maximum angular momentum                    ...      3
Integral batch strategy                     ... SHARK/LIBINT Hybrid
RI-J (if used) integral strategy            ... SPLIT-RIJ (Revised 2003 algorithm where possible)
Printlevel                                  ...      1
Contraction scheme used                     ... SEGMENTED contraction
Coulomb Range Separation                    ... NOT USED
Exchange Range Separation                   ... NOT USED
Finite Nucleus Model                        ... NOT USED
Auxiliary Coulomb fitting basis             ... AVAILABLE
   # of basis functions in Aux-J            ...     60
   # of shells in Aux-J                     ...     20
   Maximum angular momentum in Aux-J        ...      4
Auxiliary J/K fitting basis                 ... NOT available
Auxiliary Correlation fitting basis         ... NOT available
Auxiliary 'external' fitting basis          ... NOT available
Integral threshold                          ...     2.500000e-11
Primitive cut-off                           ...     2.500000e-12
Primitive pair pre-selection threshold      ...     2.500000e-12

Calculating pre-screening integrals         ... done (  0.1 sec) Dimension = 15
Organizing shell pair data                  ... done (  0.0 sec)
Shell pair information
Total number of shell pairs                 ...       120
Shell pairs after pre-screening             ...       120
Total number of primitive shell pairs       ...       376
Primitive shell pairs kept                  ...       367
          la=0 lb=0:     36 shell pairs
          la=1 lb=0:     32 shell pairs
          la=1 lb=1:     10 shell pairs
          la=2 lb=0:     16 shell pairs
          la=2 lb=1:      8 shell pairs
          la=2 lb=2:      3 shell pairs
          la=3 lb=0:      8 shell pairs
          la=3 lb=1:      4 shell pairs
          la=3 lb=2:      2 shell pairs
          la=3 lb=3:      1 shell pairs

Calculating one electron integrals          ... done (  0.0 sec)
Calculating RI/J V-Matrix + Cholesky decomp.... done (  0.0 sec)
Calculating Nuclear repulsion               ... done (  0.0 sec) ENN=      4.353968041306 Eh

SHARK setup successfully completed in   0.3 seconds

Maximum memory used throughout the entire GTOINT-calculation: 13.8 MB


           ************************************************************
           *        Program running with 2 parallel MPI-processes     *
           *              working on a common directory               *
           ************************************************************

Diagonalization of the overlap matrix:
Smallest eigenvalue                        ... 1.058e-02
Time for diagonalization                   ...    0.002 sec
Threshold for overlap eigenvalues          ... 1.000e-08
Number of eigenvalues below threshold      ... 0
Time for construction of square roots      ...    0.001 sec
Total time needed                          ...    0.004 sec

-------------------
DFT GRID GENERATION
-------------------

General Integration Accuracy     IntAcc      ... 4.388
Radial Grid Type                 RadialGrid  ... OptM3 with GC (2021)
Angular Grid (max. ang.)         AngularGrid ... 4 (Lebedev-302)
Angular grid pruning method      GridPruning ... 4 (adaptive)
Weight generation scheme         WeightScheme... Becke
Basis function cutoff            BFCut       ... 1.0000e-11
Integration weight cutoff        WCut        ... 1.0000e-14
Angular grids for H and He will be reduced by one unit
Partially contracted basis set               ... off
Rotationally invariant grid construction     ... off

Total number of grid points                  ...     9460
Total number of batches                      ...      149
Average number of points per batch           ...       63
Average number of grid points per atom       ...     4730
Time for grid setup =    0.069 sec


--------------------
CPCM SOLVATION MODEL
--------------------
CPCM parameters:
  Epsilon                                         ...       7.2500
  Refrac                                          ...       1.4070
  Rsolv                                           ...       1.3000
  Surface type                                    ... GAUSSIAN VDW
  Epsilon function type                           ...         CPCM
Radii:
 Radius for O  used is    3.4469 Bohr (=   1.8240 Ang.)
 Radius for H  used is    2.4944 Bohr (=   1.3200 Ang.)
Calculating surface                               ...        done! (  0.0s)
GEPOL surface points                              ...          176
GEPOL Volume                                      ...     181.6948
GEPOL Surface-area                                ...     156.5112
Calculating surface distance matrix               ...        done! (  0.0s)
Performing Cholesky decomposition & store         ...        done! (  0.0s)
Overall time for CPCM initialization              ...                 0.0s
--------------
SCF ITERATIONS
--------------
ITER       Energy         Delta-E        Max-DP      RMS-DP      [F,P]     Damp
               ***  Starting incremental Fock matrix formation  ***
                      *** Initiating the SOSCF procedure ***
                      *** Re-Reading the Fockian *** 
                      *** Removing any level shift *** 
ITER      Energy       Delta-E        Grad      Rot      Max-DP    RMS-DP
  0    -75.93549618 -75.9354961766  0.000556  0.000556  0.000407  0.000035
               *** Restarting incremental Fock matrix formation ***
  1    -75.93549748  -0.0000012986  0.000244  0.000411  0.000717  0.000044
  2    -75.93549696   0.0000005146  0.000446  0.000240  0.000411  0.000029
  3    -75.93549778  -0.0000008198  0.000025  0.000030  0.000041  0.000003
  4    -75.93549778  -0.0000000023  0.000012  0.000007  0.000016  0.000001
                 **** Energy Check signals convergence ****
              ***Rediagonalizing the Fockian in SOSCF/NRSCF***

               *****************************************************
               *                     SUCCESS                       *
               *           SCF CONVERGED AFTER   5 CYCLES          *
               *****************************************************

Total Energy       :          -75.93549778 Eh           -2066.30994 eV
  Last Energy change         ...   -8.6865e-10  Tolerance :   1.0000e-08
  Last MAX-Density change    ...    6.3949e-07  Tolerance :   1.0000e-07
             **** THE GBW FILE WAS UPDATED (OH_freqopt.gbw) ****
             **** DENSITY OH_freqopt.scfp WAS UPDATED ****
             **** ENERGY FILE WAS UPDATED (OH_freqopt.en.tmp) ****
             **** THE GBW FILE WAS UPDATED (OH_freqopt.gbw) ****
             **** DENSITY OH_freqopt.scfp WAS UPDATED ****
Total SCF time: 0 days 0 hours 0 min 1 sec 

Maximum memory used throughout the entire SCF-calculation: 5.9 MB


-------------------------------------------------------------------------------
                          DFT DISPERSION CORRECTION                            
                                                                               
                              DFTD3 V3.1  Rev 1                                
                          USING Becke-Johnson damping                          
-------------------------------------------------------------------------------
-------------------------   ----------------
Dispersion correction           -0.000178894
-------------------------   ----------------


-------------------------   --------------------
FINAL SINGLE POINT ENERGY       -75.935676677543
-------------------------   --------------------



           ************************************************************
           *        Program running with 2 parallel MPI-processes     *
           *              working on a common directory               *
           ************************************************************
------------------------------------------------------------------------------
                         ORCA SCF GRADIENT CALCULATION
------------------------------------------------------------------------------

Gradient of the Kohn-Sham DFT energy:
Kohn-Sham wavefunction type      ... RKS
Hartree-Fock exchange scaling    ...    0.000
Number of operators              ...    1
Number of atoms                  ...    2
Basis set dimensions             ...   37
Integral neglect threshold       ... 2.5e-11
Integral primitive cutoff        ... 2.5e-12
SHARK Integral package           ... ON

Nuc. rep. gradient       (SHARK) ... done (  0.0 sec)
HCore & Overlap gradient (SHARK) ... done (  0.0 sec)
RI-J gradient            (SHARK) ... done (  0.1 sec)
Exchange-correlation gradient    ... done
Dispersion correction            ... done

------------------
CARTESIAN GRADIENT
------------------

   1   O   :   -0.000016165   -0.000041199    0.000130246
   2   H   :    0.000016165    0.000041199   -0.000130246

Difference to translation invariance:
           :   -0.0000000000    0.0000000000   -0.0000000000

Difference to rotation invariance:
           :    0.0001760269   -0.0000682079    0.0000002722

Norm of the cartesian gradient     ...    0.0001945392
RMS gradient                       ...    0.0000794203
MAX gradient                       ...    0.0001302463

-------
TIMINGS
-------

Total SCF gradient time            ...        0.665 sec

One electron gradient       ....       0.007 sec  (  1.1%)
RI-J Coulomb gradient       ....       0.128 sec  ( 19.3%)
XC gradient                 ....       0.115 sec  ( 17.3%)
CPCM gradient               ....       0.103 sec  ( 15.6%)
   A-Matrix (El+Nuc)        ....       0.002 sec  (  0.3%)
   Potential                ....       0.101 sec  ( 15.2%)

Maximum memory used throughout the entire SCFGRAD-calculation: 25.3 MB
------------------------------------------------------------------------------
                         ORCA GEOMETRY RELAXATION STEP
------------------------------------------------------------------------------

Reading the OPT-File                    .... done
Getting information on internals        .... done
Copying old internal coords+grads       .... done
Making the new internal coordinates     .... (new redundants).... done
Validating the new internal coordinates .... (new redundants).... done
Calculating the B-matrix                .... done
Calculating the G,G- and P matrices     .... done
Transforming gradient to internals      .... done
Projecting the internal gradient        .... done
Number of atoms                         ....   2
Number of internal coordinates          ....   1
Current Energy                          ....   -75.935676678 Eh
Current gradient norm                   ....     0.000194539 Eh/bohr
Maximum allowed component of the step   ....  0.300
Current trust radius                    ....  0.300
Updating the Hessian (BFGS)             .... done
Forming the augmented Hessian           .... done
Diagonalizing the augmented Hessian     .... done
Last element of RFO vector              ....  0.999999982
Lowest eigenvalues of augmented Hessian:
 -0.000000017
Length of the computed step             ....  0.000190450
The final length of the internal step   ....  0.000190450
Converting the step to cartesian space:
 Initial RMS(Int)=    0.0001904504
Transforming coordinates:
 Iter   0:  RMS(Cart)=    0.0000549783 RMS(Int)=    0.0001904504
 Iter   1:  RMS(Cart)=    0.0000000000 RMS(Int)=    0.0000000000
done
Storing new coordinates                 .... done

                                .--------------------.
          ----------------------|Geometry convergence|-------------------------
          Item                value                   Tolerance       Converged
          ---------------------------------------------------------------------
          Energy change      -0.0000049735            0.0000050000      YES
          RMS gradient        0.0000914695            0.0001000000      YES
          MAX gradient        0.0000914695            0.0003000000      YES
          RMS step            0.0001904504            0.0020000000      YES
          MAX step            0.0001904504            0.0040000000      YES
          ........................................................
          Max(Bonds)      0.0001      Max(Angles)    0.00
          Max(Dihed)        0.00      Max(Improp)    0.00
          ---------------------------------------------------------------------

                    ***********************HURRAY********************
                    ***        THE OPTIMIZATION HAS CONVERGED     ***
                    *************************************************


    ---------------------------------------------------------------------------
                         Redundant Internal Coordinates

                          --- Optimized Parameters ---  
                            (Angstroem and degrees)

        Definition                    OldVal   dE/dq     Step     FinalVal
    ----------------------------------------------------------------------------
     1. B(H   1,O   0)                0.9723 -0.000091  0.0001    0.9724   
    ----------------------------------------------------------------------------
                 *******************************************************
                 *** FINAL ENERGY EVALUATION AT THE STATIONARY POINT ***
                 ***               (AFTER    2 CYCLES)               ***
                 *******************************************************
---------------------------------
CARTESIAN COORDINATES (ANGSTROEM)
---------------------------------
  O     -2.925564    1.327409   -0.000470
  H     -3.249698    0.492413    0.378089

----------------------------
CARTESIAN COORDINATES (A.U.)
----------------------------
  NO LB      ZA    FRAG     MASS         X           Y           Z
   0 O     8.0000    0    15.999   -5.528514    2.508439   -0.000888
   1 H     1.0000    0     1.008   -6.141039    0.930525    0.714484

--------------------------------
INTERNAL COORDINATES (ANGSTROEM)
--------------------------------
 O      0   0   0     0.000000000000     0.00000000     0.00000000
 H      1   0   0     0.972413308470     0.00000000     0.00000000

---------------------------
INTERNAL COORDINATES (A.U.)
---------------------------
 O      0   0   0     0.000000000000     0.00000000     0.00000000
 H      1   0   0     1.837594841989     0.00000000     0.00000000

---------------------
BASIS SET INFORMATION
---------------------
There are 2 groups of distinct atoms

 Group   1 Type O   : 11s6p2d1f contracted to 5s3p2d1f pattern {62111/411/11/1}
 Group   2 Type H   : 5s1p contracted to 3s1p pattern {311/1}

Atom   0O    basis set group =>   1
Atom   1H    basis set group =>   2
---------------------------------
AUXILIARY/J BASIS SET INFORMATION
---------------------------------
There are 2 groups of distinct atoms

 Group   1 Type O   : 12s5p4d2f1g contracted to 6s4p3d1f1g pattern {711111/2111/211/2/1}
 Group   2 Type H   : 5s2p1d contracted to 3s1p1d pattern {311/2/1}

Atom   0O    basis set group =>   1
Atom   1H    basis set group =>   2


           ************************************************************
           *        Program running with 2 parallel MPI-processes     *
           *              working on a common directory               *
           ************************************************************
------------------------------------------------------------------------------
                           ORCA GTO INTEGRAL CALCULATION
                           -- RI-GTO INTEGRALS CHOSEN --
------------------------------------------------------------------------------
------------------------------------------------------------------------------
                   ___                                                        
                  /   \      - P O W E R E D   B Y -                         
                 /     \                                                     
                 |  |  |   _    _      __       _____    __    __             
                 |  |  |  | |  | |    /  \     |  _  \  |  |  /  |          
                  \  \/   | |  | |   /    \    | | | |  |  | /  /          
                 / \  \   | |__| |  /  /\  \   | |_| |  |  |/  /          
                |  |  |   |  __  | /  /__\  \  |    /   |      \           
                |  |  |   | |  | | |   __   |  |    \   |  |\   \          
                \     /   | |  | | |  |  |  |  | |\  \  |  | \   \       
                 \___/    |_|  |_| |__|  |__|  |_| \__\ |__|  \__/        
                                                                              
                      - O R C A' S   B I G   F R I E N D -                    
                                      &                                       
                       - I N T E G R A L  F E E D E R -                       
                                                                              
 v1 FN, 2020, v2 2021                                                         
------------------------------------------------------------------------------


Reading SHARK input file OH_freqopt.SHARKINP.tmp ... ok
----------------------
SHARK INTEGRAL PACKAGE
----------------------

Number of atoms                             ...      2
Number of basis functions                   ...     37
Number of shells                            ...     15
Maximum angular momentum                    ...      3
Integral batch strategy                     ... SHARK/LIBINT Hybrid
RI-J (if used) integral strategy            ... SPLIT-RIJ (Revised 2003 algorithm where possible)
Printlevel                                  ...      1
Contraction scheme used                     ... SEGMENTED contraction
Coulomb Range Separation                    ... NOT USED
Exchange Range Separation                   ... NOT USED
Finite Nucleus Model                        ... NOT USED
Auxiliary Coulomb fitting basis             ... AVAILABLE
   # of basis functions in Aux-J            ...     60
   # of shells in Aux-J                     ...     20
   Maximum angular momentum in Aux-J        ...      4
Auxiliary J/K fitting basis                 ... NOT available
Auxiliary Correlation fitting basis         ... NOT available
Auxiliary 'external' fitting basis          ... NOT available
Integral threshold                          ...     2.500000e-11
Primitive cut-off                           ...     2.500000e-12
Primitive pair pre-selection threshold      ...     2.500000e-12

Calculating pre-screening integrals         ... done (  0.1 sec) Dimension = 15
Organizing shell pair data                  ... done (  0.0 sec)
Shell pair information
Total number of shell pairs                 ...       120
Shell pairs after pre-screening             ...       120
Total number of primitive shell pairs       ...       376
Primitive shell pairs kept                  ...       367
          la=0 lb=0:     36 shell pairs
          la=1 lb=0:     32 shell pairs
          la=1 lb=1:     10 shell pairs
          la=2 lb=0:     16 shell pairs
          la=2 lb=1:      8 shell pairs
          la=2 lb=2:      3 shell pairs
          la=3 lb=0:      8 shell pairs
          la=3 lb=1:      4 shell pairs
          la=3 lb=2:      2 shell pairs
          la=3 lb=3:      1 shell pairs

Calculating one electron integrals          ... done (  0.0 sec)
Calculating RI/J V-Matrix + Cholesky decomp.... done (  0.0 sec)
Calculating Nuclear repulsion               ... done (  0.0 sec) ENN=      4.353516791187 Eh

SHARK setup successfully completed in   0.2 seconds

Maximum memory used throughout the entire GTOINT-calculation: 13.8 MB


           ************************************************************
           *        Program running with 2 parallel MPI-processes     *
           *              working on a common directory               *
           ************************************************************
-------------------------------------------------------------------------------
                                 ORCA SCF
-------------------------------------------------------------------------------

------------
SCF SETTINGS
------------
Hamiltonian:
 Density Functional     Method          .... DFT(GTOs)
 Exchange Functional    Exchange        .... TPSS
 Correlation Functional Correlation     .... TPSS
 LDA part of GGA corr.  LDAOpt          .... PW91-LDA
 Gradients option       PostSCFGGA      .... off
   Density functional embedding theory  .... OFF
   NL short-range parameter             ....  5.000000
 RI-approximation to the Coulomb term is turned on
   Number of AuxJ basis functions       .... 60


General Settings:
 Integral files         IntName         .... OH_freqopt
 Hartree-Fock type      HFTyp           .... RHF
 Total Charge           Charge          ....   -1
 Multiplicity           Mult            ....    1
 Number of Electrons    NEL             ....   10
 Basis Dimension        Dim             ....   37
 Nuclear Repulsion      ENuc            ....      4.3535167912 Eh

Convergence Acceleration:
 DIIS                   CNVDIIS         .... on
   Start iteration      DIISMaxIt       ....    12
   Startup error        DIISStart       ....  0.200000
   # of expansion vecs  DIISMaxEq       ....     5
   Bias factor          DIISBfac        ....   1.050
   Max. coefficient     DIISMaxC        ....  10.000
 Trust-Rad. Augm. Hess. CNVTRAH         .... auto
   Auto Start mean grad. ratio tolernc. ....  1.125000
   Auto Start start iteration           ....     1
   Auto Start num. interpolation iter.  ....    10
   Max. Number of Micro iterations      ....    16
   Max. Number of Macro iterations      .... Maxiter - #DIIS iter
   Number of Davidson start vectors     ....     2
   Converg. threshold I  (grad. norm)   ....   1.000e-05
   Converg. threshold II (energy diff.) ....   1.000e-08
   Grad. Scal. Fac. for Micro threshold ....   0.100
   Minimum threshold for Micro iter.    ....   0.010
   NR start threshold (gradient norm)   ....   0.001
   Initial trust radius                 ....   0.400
   Minimum AH scaling param. (alpha)    ....   1.000
   Maximum AH scaling param. (alpha)    .... 1000.000
   Orbital update algorithm             .... Taylor
   White noise on init. David. guess    .... on
   Maximum white noise                  ....   0.010
   Quad. conv. algorithm                .... NR
 SOSCF                  CNVSOSCF        .... on
   Start iteration      SOSCFMaxIt      ....   150
   Startup grad/error   SOSCFStart      ....  0.003300
 Level Shifting         CNVShift        .... on
   Level shift para.    LevelShift      ....    0.2500
   Turn off err/grad.   ShiftErr        ....    0.0010
 Zerner damping         CNVZerner       .... off
 Static damping         CNVDamp         .... on
   Fraction old density DampFac         ....    0.7000
   Max. Damping (<1)    DampMax         ....    0.9800
   Min. Damping (>=0)   DampMin         ....    0.0000
   Turn off err/grad.   DampErr         ....    0.1000
 Fernandez-Rico         CNVRico         .... off

SCF Procedure:
 Maximum # iterations   MaxIter         ....   125
 SCF integral mode      SCFMode         .... Direct
   Integral package                     .... SHARK and LIBINT hybrid scheme
 Reset frequency        DirectResetFreq ....    20
 Integral Threshold     Thresh          ....  2.500e-11 Eh
 Primitive CutOff       TCut            ....  2.500e-12 Eh

Convergence Tolerance:
 Convergence Check Mode ConvCheckMode   .... Total+1el-Energy
 Convergence forced     ConvForced      .... 0
 Energy Change          TolE            ....  1.000e-08 Eh
 1-El. energy change                    ....  1.000e-05 Eh
 Orbital Gradient       TolG            ....  1.000e-05
 Orbital Rotation angle TolX            ....  1.000e-05
 DIIS Error             TolErr          ....  5.000e-07


Diagonalization of the overlap matrix:
Smallest eigenvalue                        ... 1.058e-02
Time for diagonalization                   ...    0.002 sec
Threshold for overlap eigenvalues          ... 1.000e-08
Number of eigenvalues below threshold      ... 0
Time for construction of square roots      ...    0.001 sec
Total time needed                          ...    0.004 sec

---------------------
INITIAL GUESS: MOREAD
---------------------
Guess MOs are being read from file: OH_freqopt.gbw
Input Geometry matches current geometry (good)
Input basis set matches current basis set (good)
MOs were renormalized
MOs were reorthogonalized (Cholesky)
                      ------------------
                      INITIAL GUESS DONE (   0.0 sec)
                      ------------------
-------------------
DFT GRID GENERATION
-------------------

General Integration Accuracy     IntAcc      ... 4.388
Radial Grid Type                 RadialGrid  ... OptM3 with GC (2021)
Angular Grid (max. ang.)         AngularGrid ... 4 (Lebedev-302)
Angular grid pruning method      GridPruning ... 4 (adaptive)
Weight generation scheme         WeightScheme... Becke
Basis function cutoff            BFCut       ... 1.0000e-11
Integration weight cutoff        WCut        ... 1.0000e-14
Angular grids for H and He will be reduced by one unit
Partially contracted basis set               ... off
Rotationally invariant grid construction     ... off

Total number of grid points                  ...     9460
Total number of batches                      ...      149
Average number of points per batch           ...       63
Average number of grid points per atom       ...     4730
Time for grid setup =    0.073 sec


--------------------
CPCM SOLVATION MODEL
--------------------
CPCM parameters:
  Epsilon                                         ...       7.2500
  Refrac                                          ...       1.4070
  Rsolv                                           ...       1.3000
  Surface type                                    ... GAUSSIAN VDW
  Epsilon function type                           ...         CPCM
Radii:
 Radius for O  used is    3.4469 Bohr (=   1.8240 Ang.)
 Radius for H  used is    2.4944 Bohr (=   1.3200 Ang.)
Calculating surface                               ...        done! (  0.0s)
GEPOL surface points                              ...          176
GEPOL Volume                                      ...     181.6975
GEPOL Surface-area                                ...     156.5136
Calculating surface distance matrix               ...        done! (  0.0s)
Performing Cholesky decomposition & store         ...        done! (  0.0s)
Overall time for CPCM initialization              ...                 0.0s
--------------
SCF ITERATIONS
--------------
ITER       Energy         Delta-E        Max-DP      RMS-DP      [F,P]     Damp
               ***  Starting incremental Fock matrix formation  ***
                      *** Initiating the SOSCF procedure ***
                      *** Re-Reading the Fockian *** 
                      *** Removing any level shift *** 
ITER      Energy       Delta-E        Grad      Rot      Max-DP    RMS-DP
  0    -75.93549779 -75.9354977891  0.000024  0.000024  0.000018  0.000002
               *** Restarting incremental Fock matrix formation ***
  1    -75.93549779  -0.0000000025  0.000011  0.000018  0.000031  0.000002
  2    -75.93549779   0.0000000010  0.000019  0.000010  0.000018  0.000001
                 **** Energy Check signals convergence ****
              ***Rediagonalizing the Fockian in SOSCF/NRSCF***

               *****************************************************
               *                     SUCCESS                       *
               *           SCF CONVERGED AFTER   3 CYCLES          *
               *****************************************************


----------------
TOTAL SCF ENERGY
----------------

Total Energy       :          -75.93549779 Eh           -2066.30994 eV

Components:
Nuclear Repulsion  :            4.35351679 Eh             118.46521 eV
Electronic Energy  :          -80.28901458 Eh           -2184.77516 eV
One Electron Energy:         -116.77258086 Eh           -3177.54347 eV
Two Electron Energy:           36.48356627 Eh             992.76831 eV
CPCM Dielectric    :           -0.12647452 Eh              -3.44155 eV

Virial components:
Potential Energy   :         -151.62037167 Eh           -4125.80006 eV
Kinetic Energy     :           75.68487388 Eh            2059.49012 eV
Virial Ratio       :            2.00331141


DFT components:
N(Alpha)           :        5.000001192018 electrons
N(Beta)            :        5.000001192018 electrons
N(Total)           :       10.000002384036 electrons
E(X)               :       -8.872612117188 Eh       
E(C)               :       -0.322354577139 Eh       
E(XC)              :       -9.194966694328 Eh       
DFET-embed. en.    :        0.000000000000 Eh       
CPCM Solvation Model Properties:
Surface-charge          :            0.98144376
Charge-correction       :           -0.00380394 Eh              -0.10351 eV
Free-energy (cav+disp)  :  This term is not implemented in the current solvation scheme

---------------
SCF CONVERGENCE
---------------

  Last Energy change         ...   -1.5567e-09  Tolerance :   1.0000e-08
  Last MAX-Density change    ...    1.8798e-06  Tolerance :   1.0000e-07
  Last RMS-Density change    ...    1.2736e-07  Tolerance :   5.0000e-09
  Last Orbital Gradient      ...    1.1391e-06  Tolerance :   1.0000e-05
  Last Orbital Rotation      ...    1.3806e-06  Tolerance :   1.0000e-05

             **** THE GBW FILE WAS UPDATED (OH_freqopt.gbw) ****
             **** DENSITY OH_freqopt.scfp WAS UPDATED ****
             **** ENERGY FILE WAS UPDATED (OH_freqopt.en.tmp) ****
             **** THE GBW FILE WAS UPDATED (OH_freqopt.gbw) ****
             **** DENSITY OH_freqopt.scfp WAS UPDATED ****
----------------
ORBITAL ENERGIES
----------------

  NO   OCC          E(Eh)            E(eV) 
   0   2.0000     -18.696026      -508.7447 
   1   2.0000      -0.714080       -19.4311 
   2   2.0000      -0.237714        -6.4685 
   3   2.0000      -0.100560        -2.7364 
   4   2.0000      -0.100555        -2.7362 
   5   0.0000       0.097980         2.6662 
   6   0.0000       0.449775        12.2390 
   7   0.0000       0.484094        13.1729 
   8   0.0000       0.493060        13.4168 
   9   0.0000       0.493071        13.4171 
  10   0.0000       0.641510        17.4564 
  11   0.0000       1.348159        36.6853 
  12   0.0000       1.348178        36.6858 
  13   0.0000       1.597305        43.4649 
  14   0.0000       1.597307        43.4649 
  15   0.0000       1.697701        46.1968 
  16   0.0000       2.182878        59.3991 
  17   0.0000       2.182891        59.3995 
  18   0.0000       2.246026        61.1175 
  19   0.0000       2.644602        71.9633 
  20   0.0000       2.680221        72.9325 
  21   0.0000       2.680230        72.9328 
  22   0.0000       2.820702        76.7552 
  23   0.0000       3.834128       104.3319 
  24   0.0000       5.295280       144.0919 
  25   0.0000       5.295281       144.0919 
  26   0.0000       5.332799       145.1128 
  27   0.0000       5.332807       145.1131 
  28   0.0000       5.553620       151.1217 
  29   0.0000       5.553628       151.1219 
  30   0.0000       6.261482       170.3836 
  31   0.0000       6.342163       172.5790 
  32   0.0000       6.342219       172.5806 
  33   0.0000       6.467497       175.9895 
  34   0.0000       6.467515       175.9900 
  35   0.0000       7.105072       193.3388 
  36   0.0000      43.189050      1175.2338 

                    ********************************
                    * MULLIKEN POPULATION ANALYSIS *
                    ********************************

-----------------------
MULLIKEN ATOMIC CHARGES
-----------------------
   0 O :   -1.244161
   1 H :    0.244161
Sum of atomic charges:   -1.0000000

--------------------------------
MULLIKEN REDUCED ORBITAL CHARGES
--------------------------------
  0 O s       :     3.922194  s :     3.922194
      pz      :     1.886099  p :     5.310372
      px      :     1.911888
      py      :     1.512385
      dz2     :     0.001055  d :     0.010676
      dxz     :     0.000643
      dyz     :     0.003328
      dx2y2   :     0.002995
      dxy     :     0.002655
      f0      :     0.000147  f :     0.000918
      f+1     :     0.000009
      f-1     :     0.000060
      f+2     :     0.000188
      f-2     :     0.000161
      f+3     :     0.000251
      f-3     :     0.000101
  1 H s       :     0.709517  s :     0.709517
      pz      :     0.015779  p :     0.046321
      px      :     0.015853
      py      :     0.014690


                     *******************************
                     * LOEWDIN POPULATION ANALYSIS *
                     *******************************

----------------------
LOEWDIN ATOMIC CHARGES
----------------------
   0 O :   -1.066250
   1 H :    0.066250

-------------------------------
LOEWDIN REDUCED ORBITAL CHARGES
-------------------------------
  0 O s       :     3.699516  s :     3.699516
      pz      :     1.874645  p :     5.347750
      px      :     1.895137
      py      :     1.577968
      dz2     :     0.001367  d :     0.017483
      dxz     :     0.000910
      dyz     :     0.005797
      dx2y2   :     0.005105
      dxy     :     0.004304
      f0      :     0.000286  f :     0.001501
      f+1     :     0.000004
      f-1     :     0.000024
      f+2     :     0.000335
      f-2     :     0.000280
      f+3     :     0.000460
      f-3     :     0.000113
  1 H s       :     0.757244  s :     0.757244
      pz      :     0.053100  p :     0.176506
      px      :     0.051823
      py      :     0.071583


                      *****************************
                      * MAYER POPULATION ANALYSIS *
                      *****************************

  NA   - Mulliken gross atomic population
  ZA   - Total nuclear charge
  QA   - Mulliken gross atomic charge
  VA   - Mayer's total valence
  BVA  - Mayer's bonded valence
  FA   - Mayer's free valence

  ATOM       NA         ZA         QA         VA         BVA        FA
  0 O      9.2442     8.0000    -1.2442     0.9533     0.9533    -0.0000
  1 H      0.7558     1.0000     0.2442     0.9533     0.9533     0.0000

  Mayer bond orders larger than 0.100000
B(  0-O ,  1-H ) :   0.9533 

-------
TIMINGS
-------

Total SCF time: 0 days 0 hours 0 min 1 sec 

Total time                  ....       1.089 sec
Sum of individual times     ....       0.938 sec  ( 86.2%)

Fock matrix formation       ....       0.852 sec  ( 78.2%)
  Split-RI-J                ....       0.029 sec  (  3.4% of F)
  XC integration            ....       0.274 sec  ( 32.1% of F)
    Basis function eval.    ....       0.045 sec  ( 16.3% of XC)
    Density eval.           ....       0.057 sec  ( 20.9% of XC)
    XC-Functional eval.     ....       0.091 sec  ( 33.3% of XC)
    XC-Potential eval.      ....       0.049 sec  ( 17.8% of XC)
Diagonalization             ....       0.001 sec  (  0.1%)
Density matrix formation    ....       0.000 sec  (  0.0%)
Population analysis         ....       0.005 sec  (  0.5%)
Initial guess               ....       0.002 sec  (  0.2%)
Orbital Transformation      ....       0.000 sec  (  0.0%)
Orbital Orthonormalization  ....       0.000 sec  (  0.0%)
DIIS solution               ....       0.001 sec  (  0.1%)
SOSCF solution              ....       0.004 sec  (  0.4%)
Grid generation             ....       0.073 sec  (  6.7%)

Maximum memory used throughout the entire SCF-calculation: 5.9 MB


-------------------------------------------------------------------------------
                          DFT DISPERSION CORRECTION                            
                                                                               
                              DFTD3 V3.1  Rev 1                                
                          USING Becke-Johnson damping                          
-------------------------------------------------------------------------------
The TPSS functional is recognized
Active option DFTDOPT                   ...         4   

molecular C6(AA) [au] = 28.147476 


            DFT-D V3
 parameters
 s6 scaling factor         :     1.0000 
 a1 scaling factor         :     0.4535 
 s8 scaling factor         :     1.9435 
 a2 scaling factor         :     4.4752 
 ad hoc parameters k1-k3   :    16.0000     1.3333    -4.0000 

 Edisp/kcal,au: -0.112257835373  -0.000178894229 
 E6   /kcal   :  -0.063307359 
 E8   /kcal   :  -0.048950476 
 % E8         :  43.605398252 

-------------------------   ----------------
Dispersion correction           -0.000178894
-------------------------   ----------------


-------------------------   --------------------
FINAL SINGLE POINT ENERGY       -75.935676686396
-------------------------   --------------------

                                *** OPTIMIZATION RUN DONE ***

                            ***************************************
                            *     ORCA property calculations      *
                            ***************************************

                                    ---------------------
                                    Active property flags
                                    ---------------------
   (+) Dipole Moment


------------------------------------------------------------------------------
                       ORCA ELECTRIC PROPERTIES CALCULATION
------------------------------------------------------------------------------

Dipole Moment Calculation                       ... on
Quadrupole Moment Calculation                   ... off
Polarizability Calculation                      ... off
GBWName                                         ... OH_freqopt.gbw
Electron density                                ... OH_freqopt.scfp
The origin for moment calculation is the CENTER OF MASS  = (-5.564819,  2.414916  0.041512)

-------------
DIPOLE MOMENT
-------------
                                X             Y             Z
Electronic contribution:      0.06553       0.16930      -0.07686
Nuclear contribution   :     -0.28579      -0.73621       0.33377
                        -----------------------------------------
Total Dipole Moment    :     -0.22026      -0.56691       0.25691
                        -----------------------------------------
Magnitude (a.u.)       :      0.66023
Magnitude (Debye)      :      1.67816



--------------------
Rotational spectrum 
--------------------
 
Rotational constants in cm-1:     0.000000    18.800502    18.800502 
Rotational constants in MHz :     0.000000 563624.881746 563624.881746 

 Dipole components along the rotational axes: 
x,y,z [a.u.] :    -0.660227    -0.000179    -0.000126 
x,y,z [Debye]:    -1.678165    -0.000454    -0.000320 

 

----------------------------------------------------------------------------
                           ORCA NUMERICAL FREQUENCIES
                              (2-process run)
----------------------------------------------------------------------------

Number of atoms                ... 2
Central differences            ... used
Number of displacements        ... 12
Numerical increment            ... 5.000e-03 bohr
IR-spectrum generation         ... on
Raman-spectrum generation      ... off
Surface Crossing Hessian       ... off

The output will be reduced. Please look at the following files:
SCF program output             ... >OH_freqopt.lastscf
Integral program output        ... >OH_freqopt.lastint
Gradient program output        ... >OH_freqopt.lastgrad
Dipole moment program output   ... >OH_freqopt.lastmom
AutoCI program output          ... >OH_freqopt.lastautoci

	<< Calculating on displaced geometry   2 (of  12) >>
	<< Calculating on displaced geometry   1 (of  12) >>
	<< Calculating on displaced geometry   3 (of  12) >>
	<< Calculating on displaced geometry   4 (of  12) >>
	<< Calculating on displaced geometry   5 (of  12) >>
	<< Calculating on displaced geometry   6 (of  12) >>
	<< Calculating on displaced geometry   7 (of  12) >>
	<< Calculating on displaced geometry   8 (of  12) >>
	<< Calculating on displaced geometry   9 (of  12) >>
	<< Calculating on displaced geometry  10 (of  12) >>
	<< Calculating on displaced geometry  11 (of  12) >>
	<< Calculating on displaced geometry  12 (of  12) >>

-----------------------
VIBRATIONAL FREQUENCIES
-----------------------

Scaling factor for frequencies =  1.000000000 (already applied!)

   0:         0.00 cm**-1
   1:         0.00 cm**-1
   2:         0.00 cm**-1
   3:         0.00 cm**-1
   4:         0.00 cm**-1
   5:      3640.19 cm**-1


------------
NORMAL MODES
------------

These modes are the cartesian displacements weighted by the diagonal matrix
M(i,i)=1/sqrt(m[i]) where m[i] is the mass of the displaced atom
Thus, these vectors are normalized but *not* orthogonal

                  0          1          2          3          4          5    
      0       0.000000   0.000000   0.000000   0.000000   0.000000   0.020960
      1       0.000000   0.000000   0.000000   0.000000   0.000000   0.053993
      2       0.000000   0.000000   0.000000   0.000000   0.000000  -0.024479
      3       0.000000   0.000000   0.000000   0.000000   0.000000  -0.332670
      4       0.000000   0.000000   0.000000   0.000000   0.000000  -0.856985
      5       0.000000   0.000000   0.000000   0.000000   0.000000   0.388527


-----------
IR SPECTRUM
-----------

 Mode   freq       eps      Int      T**2         TX        TY        TZ
       cm**-1   L/(mol*cm) km/mol    a.u.
----------------------------------------------------------------------------
  5:   3640.19   0.015604   78.86  0.001338  ( 0.012059  0.031444 -0.014267)

* The epsilon (eps) is given for a Dirac delta lineshape.
** The dipole moment derivative (T) already includes vibrational overlap.

The first frequency considered to be a vibration is 5
The total number of vibrations considered is 1


--------------------------
THERMOCHEMISTRY AT 298.15K
--------------------------

Temperature         ... 298.15 K
Pressure            ... 1.00 atm
Total Mass          ... 17.01 AMU
The molecule is recognized as being linear

Throughout the following assumptions are being made:
  (1) The electronic state is orbitally nondegenerate
  (2) There are no thermally accessible electronically excited states
  (3) Hindered rotations indicated by low frequency modes are not
      treated as such but are treated as vibrations and this may
      cause some error
  (4) All equations used are the standard statistical mechanics
      equations for an ideal gas
  (5) All vibrations are strictly harmonic

freq.    3640.19  E(vib)   ...       0.00 

------------
INNER ENERGY
------------

The inner energy is: U= E(el) + E(ZPE) + E(vib) + E(rot) + E(trans)
    E(el)   - is the total energy from the electronic structure calculation
              = E(kin-el) + E(nuc-el) + E(el-el) + E(nuc-nuc)
    E(ZPE)  - the the zero temperature vibrational energy from the frequency calculation
    E(vib)  - the the finite temperature correction to E(ZPE) due to population
              of excited vibrational states
    E(rot)  - is the rotational thermal energy
    E(trans)- is the translational thermal energy

Summary of contributions to the inner energy U:
Electronic energy                ...    -75.93567669 Eh
Zero point energy                ...      0.00829295 Eh       5.20 kcal/mol
Thermal vibrational correction   ...      0.00000000 Eh       0.00 kcal/mol
Thermal rotational correction    ...      0.00094418 Eh       0.59 kcal/mol
Thermal translational correction ...      0.00141627 Eh       0.89 kcal/mol
-----------------------------------------------------------------------
Total thermal energy                    -75.92502328 Eh


Summary of corrections to the electronic energy:
(perhaps to be used in another calculation)
Total thermal correction                  0.00236045 Eh       1.48 kcal/mol
Non-thermal (ZPE) correction              0.00829295 Eh       5.20 kcal/mol
-----------------------------------------------------------------------
Total correction                          0.01065341 Eh       6.69 kcal/mol


--------
ENTHALPY
--------

The enthalpy is H = U + kB*T
                kB is Boltzmann's constant
Total free energy                 ...    -75.92502328 Eh 
Thermal Enthalpy correction       ...      0.00094421 Eh       0.59 kcal/mol
-----------------------------------------------------------------------
Total Enthalpy                    ...    -75.92407907 Eh


Note: Rotational entropy computed according to Herzberg 
Infrared and Raman Spectra, Chapter V,1, Van Nostrand Reinhold, 1945 
Point Group:  Cinfv, Symmetry Number:   1  
Rotational constants in cm-1:     0.000000    18.800502    18.800502 

Vibrational entropy computed according to the QRRHO of S. Grimme
Chem.Eur.J. 2012 18 9955


-------
ENTROPY
-------

The entropy contributions are T*S = T*(S(el)+S(vib)+S(rot)+S(trans))
     S(el)   - electronic entropy
     S(vib)  - vibrational entropy
     S(rot)  - rotational entropy
     S(trans)- translational entropy
The entropies will be listed as multiplied by the temperature to get
units of energy

Electronic entropy                ...      0.00000000 Eh      0.00 kcal/mol
Vibrational entropy               ...      0.00000000 Eh      0.00 kcal/mol
Rotational entropy                ...      0.00321015 Eh      2.01 kcal/mol
Translational entropy             ...      0.01636225 Eh     10.27 kcal/mol
-----------------------------------------------------------------------
Final entropy term                ...      0.01957240 Eh     12.28 kcal/mol


-------------------
GIBBS FREE ENERGY
-------------------

The Gibbs free energy is G = H - T*S

Total enthalpy                    ...    -75.92407907 Eh 
Total entropy correction          ...     -0.01957240 Eh    -12.28 kcal/mol
-----------------------------------------------------------------------
Final Gibbs free energy         ...    -75.94365147 Eh

For completeness - the Gibbs free energy minus the electronic energy
G-E(el)                           ...     -0.00797478 Eh     -5.00 kcal/mol



Timings for individual modules:

Sum of individual times         ...       61.638 sec (=   1.027 min)
GTO integral calculation        ...        2.476 sec (=   0.041 min)   4.0 %
SCF iterations                  ...        7.295 sec (=   0.122 min)  11.8 %
SCF Gradient evaluation         ...        3.026 sec (=   0.050 min)   4.9 %
Geometry relaxation             ...        0.192 sec (=   0.003 min)   0.3 %
Numerical frequency calculation ...       48.648 sec (=   0.811 min)  78.9 %
                             ****ORCA TERMINATED NORMALLY****
TOTAL RUN TIME: 0 days 0 hours 1 minutes 0 seconds 161 msec
‘OH_freqopt.cpcm’ -> ‘/home/rothe/Calc/Li_Path/THF/OH/OH_freqopt.cpcm’
‘OH_freqopt.densities’ -> ‘/home/rothe/Calc/Li_Path/THF/OH/OH_freqopt.densities’
‘OH_freqopt.engrad’ -> ‘/home/rothe/Calc/Li_Path/THF/OH/OH_freqopt.engrad’
‘OH_freqopt.gbw’ -> ‘/home/rothe/Calc/Li_Path/THF/OH/OH_freqopt.gbw’
‘OH_freqopt.hess’ -> ‘/home/rothe/Calc/Li_Path/THF/OH/OH_freqopt.hess’
‘OH_freqopt.job’ -> ‘/home/rothe/Calc/Li_Path/THF/OH/OH_freqopt.job’
‘OH_freqopt.opt’ -> ‘/home/rothe/Calc/Li_Path/THF/OH/OH_freqopt.opt’
‘OH_freqopt_property.txt’ -> ‘/home/rothe/Calc/Li_Path/THF/OH/OH_freqopt_property.txt’
‘OH_freqopt_trj.xyz’ -> ‘/home/rothe/Calc/Li_Path/THF/OH/OH_freqopt_trj.xyz’
‘OH_freqopt.xyz’ -> ‘/home/rothe/Calc/Li_Path/THF/OH/OH_freqopt.xyz’
