! Job execution by suborca V 5.02 !
Job started from clu.thch.uni-bonn.de, running /software/cluster/orca_5_0_2_linux_x86-64_openmpi411/orca from /software/cluster/orca_5_0_2_linux_x86-64_openmpi411 on boar230 in /tmp1/rothe/Keton-CLi__pdF9w2
Going to copy the following really necessary files:  

                                 *****************
                                 * O   R   C   A *
                                 *****************

                                            #,                                       
                                            ###                                      
                                            ####                                     
                                            #####                                    
                                            ######                                   
                                           ########,                                 
                                     ,,################,,,,,                         
                               ,,#################################,,                 
                          ,,##########################################,,             
                       ,#########################################, ''#####,          
                    ,#############################################,,   '####,        
                  ,##################################################,,,,####,       
                ,###########''''           ''''###############################       
              ,#####''   ,,,,##########,,,,          '''####'''          '####       
            ,##' ,,,,###########################,,,                        '##       
           ' ,,###''''                  '''############,,,                           
         ,,##''                                '''############,,,,        ,,,,,,###''
      ,#''                                            '''#######################'''  
     '                                                          ''''####''''         
             ,#######,   #######,   ,#######,      ##                                
            ,#'     '#,  ##    ##  ,#'     '#,    #''#        ######   ,####,        
            ##       ##  ##   ,#'  ##            #'  '#       #        #'  '#        
            ##       ##  #######   ##           ,######,      #####,   #    #        
            '#,     ,#'  ##    ##  '#,     ,#' ,#      #,         ##   #,  ,#        
             '#######'   ##     ##  '#######'  #'      '#     #####' # '####'        



                  #######################################################
                  #                        -***-                        #
                  #          Department of theory and spectroscopy      #
                  #    Directorship and core code : Frank Neese         #
                  #        Max Planck Institute fuer Kohlenforschung    #
                  #                Kaiser Wilhelm Platz 1               #
                  #                 D-45470 Muelheim/Ruhr               #
                  #                      Germany                        #
                  #                                                     #
                  #                  All rights reserved                #
                  #                        -***-                        #
                  #######################################################


                         Program Version 5.0.2 -  RELEASE  -


 With contributions from (in alphabetic order):
   Daniel Aravena         : Magnetic Suceptibility
   Michael Atanasov       : Ab Initio Ligand Field Theory (pilot matlab implementation)
   Alexander A. Auer      : GIAO ZORA, VPT2 properties, NMR spectrum
   Ute Becker             : Parallelization
   Giovanni Bistoni       : ED, misc. LED, open-shell LED, HFLD
   Martin Brehm           : Molecular dynamics
   Dmytro Bykov           : SCF Hessian
   Vijay G. Chilkuri      : MRCI spin determinant printing, contributions to CSF-ICE
   Dipayan Datta          : RHF DLPNO-CCSD density
   Achintya Kumar Dutta   : EOM-CC, STEOM-CC
   Dmitry Ganyushin       : Spin-Orbit,Spin-Spin,Magnetic field MRCI
   Miquel Garcia          : C-PCM and meta-GGA Hessian, CC/C-PCM, Gaussian charge scheme
   Yang Guo               : DLPNO-NEVPT2, F12-NEVPT2, CIM, IAO-localization
   Andreas Hansen         : Spin unrestricted coupled pair/coupled cluster methods
   Benjamin Helmich-Paris : MC-RPA, TRAH-SCF, COSX integrals
   Lee Huntington         : MR-EOM, pCC
   Robert Izsak           : Overlap fitted RIJCOSX, COSX-SCS-MP3, EOM
   Marcus Kettner         : VPT2
   Christian Kollmar      : KDIIS, OOCD, Brueckner-CCSD(T), CCSD density, CASPT2, CASPT2-K
   Simone Kossmann        : Meta GGA functionals, TD-DFT gradient, OOMP2, MP2 Hessian
   Martin Krupicka        : Initial AUTO-CI
   Lucas Lang             : DCDCAS
   Marvin Lechner         : AUTO-CI (C++ implementation), FIC-MRCC
   Dagmar Lenk            : GEPOL surface, SMD
   Dimitrios Liakos       : Extrapolation schemes; Compound Job, initial MDCI parallelization
   Dimitrios Manganas     : Further ROCIS development; embedding schemes
   Dimitrios Pantazis     : SARC Basis sets
   Anastasios Papadopoulos: AUTO-CI, single reference methods and gradients
   Taras Petrenko         : DFT Hessian,TD-DFT gradient, ASA, ECA, R-Raman, ABS, FL, XAS/XES, NRVS
   Peter Pinski           : DLPNO-MP2, DLPNO-MP2 Gradient
   Christoph Reimann      : Effective Core Potentials
   Marius Retegan         : Local ZFS, SOC
   Christoph Riplinger    : Optimizer, TS searches, QM/MM, DLPNO-CCSD(T), (RO)-DLPNO pert. Triples
   Tobias Risthaus        : Range-separated hybrids, TD-DFT gradient, RPA, STAB
   Michael Roemelt        : Original ROCIS implementation
   Masaaki Saitow         : Open-shell DLPNO-CCSD energy and density
   Barbara Sandhoefer     : DKH picture change effects
   Avijit Sen             : IP-ROCIS
   Kantharuban Sivalingam : CASSCF convergence, NEVPT2, FIC-MRCI
   Bernardo de Souza      : ESD, SOC TD-DFT
   Georgi Stoychev        : AutoAux, RI-MP2 NMR, DLPNO-MP2 response
   Willem Van den Heuvel  : Paramagnetic NMR
   Boris Wezisla          : Elementary symmetry handling
   Frank Wennmohs         : Technical directorship


 We gratefully acknowledge several colleagues who have allowed us to
 interface, adapt or use parts of their codes:
   Stefan Grimme, W. Hujo, H. Kruse, P. Pracht,  : VdW corrections, initial TS optimization,
                  C. Bannwarth, S. Ehlert          DFT functionals, gCP, sTDA/sTD-DF
   Ed Valeev, F. Pavosevic, A. Kumar             : LibInt (2-el integral package), F12 methods
   Garnet Chan, S. Sharma, J. Yang, R. Olivares  : DMRG
   Ulf Ekstrom                                   : XCFun DFT Library
   Mihaly Kallay                                 : mrcc  (arbitrary order and MRCC methods)
   Jiri Pittner, Ondrej Demel                    : Mk-CCSD
   Frank Weinhold                                : gennbo (NPA and NBO analysis)
   Christopher J. Cramer and Donald G. Truhlar   : smd solvation model
   Lars Goerigk                                  : TD-DFT with DH, B97 family of functionals
   V. Asgeirsson, H. Jonsson                     : NEB implementation
   FAccTs GmbH                                   : IRC, NEB, NEB-TS, DLPNO-Multilevel, CI-OPT
                                                   MM, QMMM, 2- and 3-layer-ONIOM, Crystal-QMMM,
                                                   LR-CPCM, SF, NACMEs, symmetry and pop. for TD-DFT,
                                                   nearIR, NL-DFT gradient (VV10), updates on ESD,
                                                   ML-optimized integration grids
   S Lehtola, MJT Oliveira, MAL Marques          : LibXC Library
   Liviu Ungur et al                             : ANISO software


 Your calculation uses the libint2 library for the computation of 2-el integrals
 For citations please refer to: http://libint.valeyev.net

 Your ORCA version has been built with support for libXC version: 5.1.0
 For citations please refer to: https://tddft.org/programs/libxc/

 This ORCA versions uses:
   CBLAS   interface :  Fast vector & matrix operations
   LAPACKE interface :  Fast linear algebra routines
   SCALAPACK package :  Parallel linear algebra routines
   Shared memory     :  Shared parallel matrices
   BLAS/LAPACK       :  OpenBLAS 0.3.15  USE64BITINT DYNAMIC_ARCH NO_AFFINITY Barcelona SINGLE_THREADED
        Core in use  :  Barcelona
   Copyright (c) 2011-2014, The OpenBLAS Project


Your calculation utilizes the atom-pairwise dispersion correction
with the Becke-Johnson damping scheme (D3BJ)
Cite in your paper:
S.Grimme, S.Ehrlich, L.Goerigk, J Comput Chem, (2011), 32, 1456–1465 
S.Grimme, J.Antony, S.Ehrlich and H.Krieg, J.Chem.Phys., 132, (2010), 154104 
   

================================================================================

----- Orbital basis set information -----
Your calculation utilizes the basis: def2-TZVP
   F. Weigend and R. Ahlrichs, Phys. Chem. Chem. Phys. 7, 3297 (2005).

----- AuxJ basis set information -----
Your calculation utilizes the auxiliary basis: def2/J
   F. Weigend, Phys. Chem. Chem. Phys. 8, 1057 (2006).

================================================================================
                                        WARNINGS
                       Please study these warnings very carefully!
================================================================================


WARNING: Geometry Optimization
  ===> : Switching off AutoStart
         For restart on a previous wavefunction, please use MOREAD

INFO   : the flag for use of the SHARK integral package has been found!

================================================================================
                                       INPUT FILE
================================================================================
NAME = Keton-CLi.inp
|  1> ! TPSS D3BJ def2-TZVP RI def2/J CPCM(THF)
|  2> ! Opt numfreq Pal4
|  3> 
|  4> * xyz 0 1
|  5> C        -2.69567634634206    1.41897523081955   -0.05984102051493
|  6> C        -2.89414867121397    0.05050949267176    0.07611587562425
|  7> C        -1.79386091403176   -0.78421216308561    0.20788436854003
|  8> C        -0.50928594276036   -0.28053538699702    0.20440527589661
|  9> C        -0.29713582934760    1.09147692659901    0.06205795990778
| 10> C        -1.39802539170615    1.92467434378225   -0.06459996895639
| 11> H        -1.25534148987242    2.99070426696624   -0.18283618998207
| 12> H        -3.88489546979330   -0.37505352044288    0.08466396708163
| 13> H        -1.95381743605293   -1.84666081202244    0.32076901592965
| 14> H         0.33275457821490   -0.94326523689147    0.32654873290731
| 15> O        -3.69234447860876    2.34683363161921   -0.19232861416834
| 16> C        -5.03324394598759    1.90323694008098   -0.18343513678651
| 17> H        -5.23374097668982    1.22148199993325   -1.01536512674912
| 18> H        -5.63614041621340    2.80238366834809   -0.29782163156879
| 19> H        -5.28405144222628    1.41269370239718    0.76203722443230
| 20> C         1.06965738290206    1.67430745368056    0.06080432627813
| 21> C         2.09522495283738    1.00992445093128   -0.48647209486190
| 22> H         3.08420214491062    1.43660533635746   -0.49994099624516
| 23> Li        1.30340292145328    4.32537152704249    1.22454547141414
| 24> H         1.96146573052738    0.05436349451452   -0.95668762262677
| 25> O         1.19790878350139    2.87643355129486    0.60949634714811
| 26> *
| 27> 
| 28>                          ****END OF INPUT****
================================================================================

                       *****************************
                       * Geometry Optimization Run *
                       *****************************

Geometry optimization settings:
Update method            Update   .... BFGS
Choice of coordinates    CoordSys .... Z-matrix Internals
Initial Hessian          InHess   .... Almoef's Model

Convergence Tolerances:
Energy Change            TolE     ....  5.0000e-06 Eh
Max. Gradient            TolMAXG  ....  3.0000e-04 Eh/bohr
RMS Gradient             TolRMSG  ....  1.0000e-04 Eh/bohr
Max. Displacement        TolMAXD  ....  4.0000e-03 bohr
RMS Displacement         TolRMSD  ....  2.0000e-03 bohr
Strict Convergence                ....  False
------------------------------------------------------------------------------
                        ORCA OPTIMIZATION COORDINATE SETUP
------------------------------------------------------------------------------

The optimization will be done in new redundant internal coordinates
Making redundant internal coordinates   ...  (new redundants) done
Evaluating the initial hessian          ...  (Almloef) done
Evaluating the coordinates              ...  done
Calculating the B-matrix                .... done
Calculating the G-matrix                .... done
Diagonalizing the G-matrix              .... done
Small eigenvalue found = 1.287e-02
Small eigenvalue found = 2.687e-02
The first mode is                       ....   34
The number of degrees of freedom        ....   57

    -----------------------------------------------------------------
                    Redundant Internal Coordinates


    -----------------------------------------------------------------
         Definition                    Initial Value    Approx d2E/dq
    -----------------------------------------------------------------
      1. B(C   1,C   0)                  1.3895         0.626058   
      2. B(C   2,C   1)                  1.3874         0.630895   
      3. B(C   3,C   2)                  1.3798         0.648663   
      4. B(C   4,C   3)                  1.3956         0.612083   
      5. B(C   5,C   4)                  1.3864         0.633019   
      6. B(C   5,C   0)                  1.3927         0.618598   
      7. B(H   6,C   5)                  1.0820         0.370818   
      8. B(H   7,C   1)                  1.0783         0.375899   
      9. B(H   8,C   2)                  1.0803         0.373114   
     10. B(H   9,C   3)                  1.0785         0.375639   
     11. B(O  10,C   0)                  1.3681         0.606378   
     12. B(C  11,O  10)                  1.4124         0.515396   
     13. B(H  12,C  11)                  1.0941         0.354692   
     14. B(H  13,C  11)                  1.0886         0.361967   
     15. B(H  14,C  11)                  1.0943         0.354479   
     16. B(C  15,C   4)                  1.4859         0.439319   
     17. B(C  16,C  15)                  1.3389         0.753762   
     18. B(H  17,C  16)                  1.0772         0.377467   
     19. B(H  19,C  16)                  1.0734         0.382806   
     20. B(O  20,Li 18)                  1.5776         1.363334   
     21. B(O  20,C  15)                  1.3276         0.703676   
     22. A(C   1,C   0,O  10)          124.9850         0.430260   
     23. A(C   1,C   0,C   5)          119.4093         0.434649   
     24. A(C   5,C   0,O  10)          115.6056         0.429336   
     25. A(C   2,C   1,H   7)          119.3719         0.356539   
     26. A(C   0,C   1,H   7)          121.3802         0.356073   
     27. A(C   0,C   1,C   2)          119.2476         0.436192   
     28. A(C   3,C   2,H   8)          119.8084         0.357773   
     29. A(C   1,C   2,C   3)          121.2305         0.438991   
     30. A(C   1,C   2,H   8)          118.9601         0.356089   
     31. A(C   4,C   3,H   9)          119.8000         0.354671   
     32. A(C   2,C   3,C   4)          120.0430         0.436601   
     33. A(C   2,C   3,H   9)          120.1505         0.358184   
     34. A(C   5,C   4,C  15)          119.6435         0.409688   
     35. A(C   3,C   4,C  15)          121.7044         0.407256   
     36. A(C   3,C   4,C   5)          118.6474         0.434686   
     37. A(C   0,C   5,H   6)          118.7494         0.354531   
     38. A(C   0,C   5,C   4)          121.4207         0.435515   
     39. A(C   4,C   5,H   6)          119.8253         0.355919   
     40. A(C   0,O  10,C  11)          118.5544         0.412875   
     41. A(H  13,C  11,H  14)          109.5188         0.290357   
     42. A(H  12,C  11,H  14)          109.6113         0.289434   
     43. A(O  10,C  11,H  14)          111.3355         0.339124   
     44. A(H  12,C  11,H  13)          109.4682         0.290385   
     45. A(O  10,C  11,H  13)          105.4096         0.340310   
     46. A(O  10,C  11,H  12)          111.4006         0.339158   
     47. A(C   4,C  15,O  20)          116.3387         0.414758   
     48. A(C  16,C  15,O  20)          122.9723         0.457096   
     49. A(C   4,C  15,C  16)          120.6831         0.422613   
     50. A(H  17,C  16,H  19)          117.4888         0.295846   
     51. A(C  15,C  16,H  19)          121.6926         0.368684   
     52. A(C  15,C  16,H  17)          120.7842         0.367796   
     53. L(C  15,O  20,Li 18,C   4, 2) 183.1458         0.552800   
     54. L(C  15,O  20,Li 18,C   4, 1) 178.5594         0.552800   
     55. D(H   7,C   1,C   0,O  10)      0.0390         0.027154   
     56. D(C   2,C   1,C   0,C   5)      0.1631         0.027154   
     57. D(C   2,C   1,C   0,O  10)   -179.7495         0.027154   
     58. D(H   7,C   1,C   0,C   5)    179.9517         0.027154   
     59. D(C   3,C   2,C   1,H   7)   -179.8839         0.027602   
     60. D(C   3,C   2,C   1,C   0)     -0.0910         0.027602   
     61. D(H   8,C   2,C   1,C   0)    179.5443         0.027602   
     62. D(H   8,C   2,C   1,H   7)     -0.2486         0.027602   
     63. D(H   9,C   3,C   2,H   8)     -0.7773         0.029288   
     64. D(H   9,C   3,C   2,C   1)    178.8549         0.029288   
     65. D(C   4,C   3,C   2,H   8)   -179.8495         0.029288   
     66. D(C   4,C   3,C   2,C   1)     -0.2172         0.029288   
     67. D(C  15,C   4,C   3,C   2)    179.6575         0.025885   
     68. D(C   5,C   4,C   3,H   9)   -178.6313         0.025885   
     69. D(C   5,C   4,C   3,C   2)      0.4441         0.025885   
     70. D(C  15,C   4,C   3,H   9)      0.5820         0.025885   
     71. D(H   6,C   5,C   4,C  15)      1.1891         0.027801   
     72. D(C   0,C   5,C   4,C  15)   -179.6050         0.027801   
     73. D(C   0,C   5,C   4,C   3)     -0.3751         0.027801   
     74. D(H   6,C   5,C   0,O  10)     -0.7927         0.026472   
     75. D(H   6,C   5,C   0,C   1)    179.2866         0.026472   
     76. D(H   6,C   5,C   4,C   3)   -179.5809         0.027801   
     77. D(C   4,C   5,C   0,O  10)    179.9931         0.026472   
     78. D(C   4,C   5,C   0,C   1)      0.0725         0.026472   
     79. D(C  11,O  10,C   0,C   5)   -179.4425         0.026893   
     80. D(C  11,O  10,C   0,C   1)      0.4731         0.026893   
     81. D(H  14,C  11,O  10,C   0)     61.1623         0.021045   
     82. D(H  13,C  11,O  10,C   0)    179.8303         0.021045   
     83. D(H  12,C  11,O  10,C   0)    -61.5278         0.021045   
     84. D(C  16,C  15,C   4,C   5)   -145.5935         0.013170   
     85. D(C  16,C  15,C   4,C   3)     35.2008         0.013170   
     86. D(O  20,C  15,C   4,C   5)     33.5502         0.013170   
     87. D(O  20,C  15,C   4,C   3)   -145.6555         0.013170   
     88. D(H  19,C  16,C  15,O  20)   -177.7180         0.040558   
     89. D(H  19,C  16,C  15,C   4)      1.3673         0.040558   
     90. D(H  17,C  16,C  15,O  20)      0.0962         0.040558   
     91. D(H  17,C  16,C  15,C   4)    179.1815         0.040558   
    -----------------------------------------------------------------

Number of atoms                         .... 21
Number of degrees of freedom            .... 91

         *************************************************************
         *                GEOMETRY OPTIMIZATION CYCLE   1            *
         *************************************************************
---------------------------------
CARTESIAN COORDINATES (ANGSTROEM)
---------------------------------
  C     -2.695676    1.418975   -0.059841
  C     -2.894149    0.050509    0.076116
  C     -1.793861   -0.784212    0.207884
  C     -0.509286   -0.280535    0.204405
  C     -0.297136    1.091477    0.062058
  C     -1.398025    1.924674   -0.064600
  H     -1.255341    2.990704   -0.182836
  H     -3.884895   -0.375054    0.084664
  H     -1.953817   -1.846661    0.320769
  H      0.332755   -0.943265    0.326549
  O     -3.692344    2.346834   -0.192329
  C     -5.033244    1.903237   -0.183435
  H     -5.233741    1.221482   -1.015365
  H     -5.636140    2.802384   -0.297822
  H     -5.284051    1.412694    0.762037
  C      1.069657    1.674307    0.060804
  C      2.095225    1.009924   -0.486472
  H      3.084202    1.436605   -0.499941
  Li     1.303403    4.325372    1.224545
  H      1.961466    0.054363   -0.956688
  O      1.197909    2.876434    0.609496

----------------------------
CARTESIAN COORDINATES (A.U.)
----------------------------
  NO LB      ZA    FRAG     MASS         X           Y           Z
   0 C     6.0000    0    12.011   -5.094090    2.681475   -0.113083
   1 C     6.0000    0    12.011   -5.469148    0.095449    0.143838
   2 C     6.0000    0    12.011   -3.389906   -1.481946    0.392845
   3 C     6.0000    0    12.011   -0.962411   -0.530135    0.386270
   4 C     6.0000    0    12.011   -0.561505    2.062592    0.117273
   5 C     6.0000    0    12.011   -2.641885    3.637107   -0.122076
   6 H     1.0000    0     1.008   -2.372252    5.651612   -0.345510
   7 H     1.0000    0     1.008   -7.341388   -0.708748    0.159992
   8 H     1.0000    0     1.008   -3.692180   -3.489683    0.606166
   9 H     1.0000    0     1.008    0.628815   -1.782513    0.617088
  10 O     8.0000    0    15.999   -6.977520    4.434873   -0.363448
  11 C     6.0000    0    12.011   -9.511453    3.596597   -0.346642
  12 H     1.0000    0     1.008   -9.890337    2.308266   -1.918762
  13 H     1.0000    0     1.008  -10.650762    5.295738   -0.562801
  14 H     1.0000    0     1.008   -9.985410    2.669604    1.440042
  15 C     6.0000    0    12.011    2.021360    3.163983    0.114904
  16 C     6.0000    0    12.011    3.959401    1.908481   -0.919299
  17 H     1.0000    0     1.008    5.828297    2.714791   -0.944752
  18 Li    3.0000    0     6.941    2.463075    8.173768    2.314056
  19 H     1.0000    0     1.008    3.706633    0.102732   -1.807878
  20 O     8.0000    0    15.999    2.263720    5.435672    1.151781

--------------------------------
INTERNAL COORDINATES (ANGSTROEM)
--------------------------------
 C      0   0   0     0.000000000000     0.00000000     0.00000000
 C      1   0   0     1.389450977125     0.00000000     0.00000000
 C      2   1   0     1.387355876090   119.24758388     0.00000000
 C      3   2   1     1.379795367318   121.23050566   359.90903342
 C      4   3   2     1.395596008037   120.04296441   359.78277344
 C      5   4   3     1.386440765217   118.64744584     0.44411945
 H      6   5   4     1.082015848742   119.82525765   180.41909971
 H      2   1   3     1.078311720651   121.38019209   179.78859580
 H      3   2   1     1.080336134812   118.96012425   179.54431388
 H      4   3   2     1.078499938338   120.15051764   178.85493623
 O      1   2   3     1.368145292095   124.98498656   180.25045039
 C     11   1   2     1.412398138026   118.55444469     0.47305581
 H     12  11   1     1.094118990757   111.40064563   298.47217891
 H     12  11   1     1.088592330927   105.40960045   179.83031346
 H     12  11   1     1.094282894884   111.33548923    61.16228194
 C      5   4   3     1.485872363276   121.70440651   179.65747217
 C     16   5   4     1.338919376206   120.68311345    35.20079364
 H     17  16   5     1.077178664723   120.78418581   179.18145611
 Li    16   5   4     2.904663689783   115.57467461   213.25124241
 H     17  16   5     1.073354980206   121.69264798     1.36729224
 O     16   5   4     1.327636437466   116.33873152   214.34451169

---------------------------
INTERNAL COORDINATES (A.U.)
---------------------------
 C      0   0   0     0.000000000000     0.00000000     0.00000000
 C      1   0   0     2.625681823275     0.00000000     0.00000000
 C      2   1   0     2.621722656096   119.24758388     0.00000000
 C      3   2   1     2.607435365085   121.23050566   359.90903342
 C      4   3   2     2.637294248784   120.04296441   359.78277344
 C      5   4   3     2.619993347164   118.64744584     0.44411945
 H      6   5   4     2.044713626685   119.82525765   180.41909971
 H      2   1   3     2.037713839028   121.38019209   179.78859580
 H      3   2   1     2.041539427374   118.96012425   179.54431388
 H      4   3   2     2.038069518911   120.15051764   178.85493623
 O      1   2   3     2.585419913474   124.98498656   180.25045039
 C     11   1   2     2.669045672930   118.55444469     0.47305581
 H     12  11   1     2.067585250453   111.40064563   298.47217891
 H     12  11   1     2.057141376939   105.40960045   179.83031346
 H     12  11   1     2.067894984365   111.33548923    61.16228194
 C      5   4   3     2.807891836554   121.70440651   179.65747217
 C     16   5   4     2.530190936431   120.68311345    35.20079364
 H     17  16   5     2.035572673629   120.78418581   179.18145611
 Li    16   5   4     5.489018884836   115.57467461   213.25124241
 H     17  16   5     2.028346957069   121.69264798     1.36729224
 O     16   5   4     2.508869272226   116.33873152   214.34451169

---------------------
BASIS SET INFORMATION
---------------------
There are 4 groups of distinct atoms

 Group   1 Type C   : 11s6p2d1f contracted to 5s3p2d1f pattern {62111/411/11/1}
 Group   2 Type H   : 5s1p contracted to 3s1p pattern {311/1}
 Group   3 Type O   : 11s6p2d1f contracted to 5s3p2d1f pattern {62111/411/11/1}
 Group   4 Type Li  : 11s3p contracted to 5s3p pattern {62111/111}

Atom   0C    basis set group =>   1
Atom   1C    basis set group =>   1
Atom   2C    basis set group =>   1
Atom   3C    basis set group =>   1
Atom   4C    basis set group =>   1
Atom   5C    basis set group =>   1
Atom   6H    basis set group =>   2
Atom   7H    basis set group =>   2
Atom   8H    basis set group =>   2
Atom   9H    basis set group =>   2
Atom  10O    basis set group =>   3
Atom  11C    basis set group =>   1
Atom  12H    basis set group =>   2
Atom  13H    basis set group =>   2
Atom  14H    basis set group =>   2
Atom  15C    basis set group =>   1
Atom  16C    basis set group =>   1
Atom  17H    basis set group =>   2
Atom  18Li   basis set group =>   4
Atom  19H    basis set group =>   2
Atom  20O    basis set group =>   3
---------------------------------
AUXILIARY/J BASIS SET INFORMATION
---------------------------------
There are 4 groups of distinct atoms

 Group   1 Type C   : 12s5p4d2f1g contracted to 6s4p3d1f1g pattern {711111/2111/211/2/1}
 Group   2 Type H   : 5s2p1d contracted to 3s1p1d pattern {311/2/1}
 Group   3 Type O   : 12s5p4d2f1g contracted to 6s4p3d1f1g pattern {711111/2111/211/2/1}
 Group   4 Type Li  : 12s5p4d2f1g contracted to 6s4p3d1f1g pattern {711111/2111/211/2/1}

Atom   0C    basis set group =>   1
Atom   1C    basis set group =>   1
Atom   2C    basis set group =>   1
Atom   3C    basis set group =>   1
Atom   4C    basis set group =>   1
Atom   5C    basis set group =>   1
Atom   6H    basis set group =>   2
Atom   7H    basis set group =>   2
Atom   8H    basis set group =>   2
Atom   9H    basis set group =>   2
Atom  10O    basis set group =>   3
Atom  11C    basis set group =>   1
Atom  12H    basis set group =>   2
Atom  13H    basis set group =>   2
Atom  14H    basis set group =>   2
Atom  15C    basis set group =>   1
Atom  16C    basis set group =>   1
Atom  17H    basis set group =>   2
Atom  18Li   basis set group =>   4
Atom  19H    basis set group =>   2
Atom  20O    basis set group =>   3


           ************************************************************
           *        Program running with 4 parallel MPI-processes     *
           *              working on a common directory               *
           ************************************************************
------------------------------------------------------------------------------
                           ORCA GTO INTEGRAL CALCULATION
                           -- RI-GTO INTEGRALS CHOSEN --
------------------------------------------------------------------------------
------------------------------------------------------------------------------
                   ___                                                        
                  /   \      - P O W E R E D   B Y -                         
                 /     \                                                     
                 |  |  |   _    _      __       _____    __    __             
                 |  |  |  | |  | |    /  \     |  _  \  |  |  /  |          
                  \  \/   | |  | |   /    \    | | | |  |  | /  /          
                 / \  \   | |__| |  /  /\  \   | |_| |  |  |/  /          
                |  |  |   |  __  | /  /__\  \  |    /   |      \           
                |  |  |   | |  | | |   __   |  |    \   |  |\   \          
                \     /   | |  | | |  |  |  |  | |\  \  |  | \   \       
                 \___/    |_|  |_| |__|  |__|  |_| \__\ |__|  \__/        
                                                                              
                      - O R C A' S   B I G   F R I E N D -                    
                                      &                                       
                       - I N T E G R A L  F E E D E R -                       
                                                                              
 v1 FN, 2020, v2 2021                                                         
------------------------------------------------------------------------------


Reading SHARK input file Keton-CLi.SHARKINP.tmp ... ok
----------------------
SHARK INTEGRAL PACKAGE
----------------------

Number of atoms                             ...     21
Number of basis functions                   ...    409
Number of shells                            ...    165
Maximum angular momentum                    ...      3
Integral batch strategy                     ... SHARK/LIBINT Hybrid
RI-J (if used) integral strategy            ... SPLIT-RIJ (Revised 2003 algorithm where possible)
Printlevel                                  ...      1
Contraction scheme used                     ... SEGMENTED contraction
Coulomb Range Separation                    ... NOT USED
Exchange Range Separation                   ... NOT USED
Finite Nucleus Model                        ... NOT USED
Auxiliary Coulomb fitting basis             ... AVAILABLE
   # of basis functions in Aux-J            ...    687
   # of shells in Aux-J                     ...    225
   Maximum angular momentum in Aux-J        ...      4
Auxiliary J/K fitting basis                 ... NOT available
Auxiliary Correlation fitting basis         ... NOT available
Auxiliary 'external' fitting basis          ... NOT available
Integral threshold                          ...     2.500000e-11
Primitive cut-off                           ...     2.500000e-12
Primitive pair pre-selection threshold      ...     2.500000e-12

Calculating pre-screening integrals         ... done (  0.1 sec) Dimension = 165
Organizing shell pair data                  ... done (  0.3 sec)
Shell pair information
Total number of shell pairs                 ...     13695
Shell pairs after pre-screening             ...     11406
Total number of primitive shell pairs       ...     41901
Primitive shell pairs kept                  ...     25045
          la=0 lb=0:   3035 shell pairs
          la=1 lb=0:   3297 shell pairs
          la=1 lb=1:    916 shell pairs
          la=2 lb=0:   1600 shell pairs
          la=2 lb=1:    874 shell pairs
          la=2 lb=2:    223 shell pairs
          la=3 lb=0:    773 shell pairs
          la=3 lb=1:    423 shell pairs
          la=3 lb=2:    207 shell pairs
          la=3 lb=3:     58 shell pairs

Calculating one electron integrals          ... done (  0.1 sec)
Calculating RI/J V-Matrix + Cholesky decomp.... done (  0.1 sec)
Calculating Nuclear repulsion               ... done (  0.0 sec) ENN=    595.396217011757 Eh

SHARK setup successfully completed in   1.0 seconds

Maximum memory used throughout the entire GTOINT-calculation: 24.4 MB


           ************************************************************
           *        Program running with 4 parallel MPI-processes     *
           *              working on a common directory               *
           ************************************************************
-------------------------------------------------------------------------------
                                 ORCA SCF
-------------------------------------------------------------------------------

------------
SCF SETTINGS
------------
Hamiltonian:
 Density Functional     Method          .... DFT(GTOs)
 Exchange Functional    Exchange        .... TPSS
 Correlation Functional Correlation     .... TPSS
 LDA part of GGA corr.  LDAOpt          .... PW91-LDA
 Gradients option       PostSCFGGA      .... off
   Density functional embedding theory  .... OFF
   NL short-range parameter             ....  5.000000
 RI-approximation to the Coulomb term is turned on
   Number of AuxJ basis functions       .... 687


General Settings:
 Integral files         IntName         .... Keton-CLi
 Hartree-Fock type      HFTyp           .... RHF
 Total Charge           Charge          ....    0
 Multiplicity           Mult            ....    1
 Number of Electrons    NEL             ....   82
 Basis Dimension        Dim             ....  409
 Nuclear Repulsion      ENuc            ....    595.3962170118 Eh

Convergence Acceleration:
 DIIS                   CNVDIIS         .... on
   Start iteration      DIISMaxIt       ....    12
   Startup error        DIISStart       ....  0.200000
   # of expansion vecs  DIISMaxEq       ....     5
   Bias factor          DIISBfac        ....   1.050
   Max. coefficient     DIISMaxC        ....  10.000
 Trust-Rad. Augm. Hess. CNVTRAH         .... auto
   Auto Start mean grad. ratio tolernc. ....  1.125000
   Auto Start start iteration           ....    20
   Auto Start num. interpolation iter.  ....    10
   Max. Number of Micro iterations      ....    16
   Max. Number of Macro iterations      .... Maxiter - #DIIS iter
   Number of Davidson start vectors     ....     2
   Converg. threshold I  (grad. norm)   ....   1.000e-05
   Converg. threshold II (energy diff.) ....   1.000e-08
   Grad. Scal. Fac. for Micro threshold ....   0.100
   Minimum threshold for Micro iter.    ....   0.010
   NR start threshold (gradient norm)   ....   0.001
   Initial trust radius                 ....   0.400
   Minimum AH scaling param. (alpha)    ....   1.000
   Maximum AH scaling param. (alpha)    .... 1000.000
   Orbital update algorithm             .... Taylor
   White noise on init. David. guess    .... on
   Maximum white noise                  ....   0.010
   Quad. conv. algorithm                .... NR
 SOSCF                  CNVSOSCF        .... on
   Start iteration      SOSCFMaxIt      ....   150
   Startup grad/error   SOSCFStart      ....  0.003300
 Level Shifting         CNVShift        .... on
   Level shift para.    LevelShift      ....    0.2500
   Turn off err/grad.   ShiftErr        ....    0.0010
 Zerner damping         CNVZerner       .... off
 Static damping         CNVDamp         .... on
   Fraction old density DampFac         ....    0.7000
   Max. Damping (<1)    DampMax         ....    0.9800
   Min. Damping (>=0)   DampMin         ....    0.0000
   Turn off err/grad.   DampErr         ....    0.1000
 Fernandez-Rico         CNVRico         .... off

SCF Procedure:
 Maximum # iterations   MaxIter         ....   125
 SCF integral mode      SCFMode         .... Direct
   Integral package                     .... SHARK and LIBINT hybrid scheme
 Reset frequency        DirectResetFreq ....    20
 Integral Threshold     Thresh          ....  2.500e-11 Eh
 Primitive CutOff       TCut            ....  2.500e-12 Eh

Convergence Tolerance:
 Convergence Check Mode ConvCheckMode   .... Total+1el-Energy
 Convergence forced     ConvForced      .... 0
 Energy Change          TolE            ....  1.000e-08 Eh
 1-El. energy change                    ....  1.000e-05 Eh
 Orbital Gradient       TolG            ....  1.000e-05
 Orbital Rotation angle TolX            ....  1.000e-05
 DIIS Error             TolErr          ....  5.000e-07


Diagonalization of the overlap matrix:
Smallest eigenvalue                        ... 7.475e-06
Time for diagonalization                   ...    0.089 sec
Threshold for overlap eigenvalues          ... 1.000e-08
Number of eigenvalues below threshold      ... 0
Time for construction of square roots      ...    0.055 sec
Total time needed                          ...    0.146 sec

Time for model grid setup =    0.427 sec

------------------------------
INITIAL GUESS: MODEL POTENTIAL
------------------------------
Loading Hartree-Fock densities                     ... done
Calculating cut-offs                               ... done
Initializing the effective Hamiltonian             ... done
Setting up the integral package (SHARK)            ... done
Starting the Coulomb interaction                   ... done (   0.4 sec)
Reading the grid                                   ... done
Mapping shells                                     ... done
Starting the XC term evaluation                    ... done (   0.6 sec)
  promolecular density results
     # of electrons  =     81.993568283
     EX              =    -66.755044890
     EC              =     -2.691849402
     EX+EC           =    -69.446894292
Transforming the Hamiltonian                       ... done (   0.0 sec)
Diagonalizing the Hamiltonian                      ... done (   0.1 sec)
Back transforming the eigenvectors                 ... done (   0.0 sec)
Now organizing SCF variables                       ... done
                      ------------------
                      INITIAL GUESS DONE (   1.7 sec)
                      ------------------
-------------------
DFT GRID GENERATION
-------------------

General Integration Accuracy     IntAcc      ... 4.388
Radial Grid Type                 RadialGrid  ... OptM3 with GC (2021)
Angular Grid (max. ang.)         AngularGrid ... 4 (Lebedev-302)
Angular grid pruning method      GridPruning ... 4 (adaptive)
Weight generation scheme         WeightScheme... Becke
Basis function cutoff            BFCut       ... 1.0000e-11
Integration weight cutoff        WCut        ... 1.0000e-14
Angular grids for H and He will be reduced by one unit
Partially contracted basis set               ... off
Rotationally invariant grid construction     ... off

Total number of grid points                  ...   100847
Total number of batches                      ...     1584
Average number of points per batch           ...       63
Average number of grid points per atom       ...     4802
Time for grid setup =    1.746 sec


--------------------
CPCM SOLVATION MODEL
--------------------
CPCM parameters:
  Epsilon                                         ...       7.2500
  Refrac                                          ...       1.4070
  Rsolv                                           ...       1.3000
  Surface type                                    ... GAUSSIAN VDW
  Epsilon function type                           ...         CPCM
Radii:
 Radius for C  used is    3.8550 Bohr (=   2.0400 Ang.)
 Radius for H  used is    2.4944 Bohr (=   1.3200 Ang.)
 Radius for O  used is    3.4469 Bohr (=   1.8240 Ang.)
 Radius for Li used is    4.1272 Bohr (=   2.1840 Ang.)
Calculating surface                               ...        done! (  0.0s)
GEPOL surface points                              ...         1192
GEPOL Volume                                      ...    1473.3183
GEPOL Surface-area                                ...     809.1928
Calculating surface distance matrix               ...        done! (  0.0s)
Performing Cholesky decomposition & store         ...        done! (  0.2s)
Overall time for CPCM initialization              ...                 0.2s
--------------
SCF ITERATIONS
--------------
ITER       Energy         Delta-E        Max-DP      RMS-DP      [F,P]     Damp
               ***  Starting incremental Fock matrix formation  ***
  0   -506.3042002591   0.000000000000 0.17437696  0.00212706  0.3627588 0.7000
  1   -506.4735823765  -0.169382117451 0.17199406  0.00199357  0.1127993 0.7000
                               ***Turning on DIIS***
  2   -506.5312645020  -0.057682125465 0.26116217  0.00327477  0.0352796 0.0000
  3   -506.6260782039  -0.094813701877 0.16246306  0.00166310  0.0581395 0.0000
  4   -506.6488984984  -0.022820294569 0.05506058  0.00062614  0.0327849 0.0000
  5   -506.6513330277  -0.002434529283 0.02427592  0.00029200  0.0074351 0.0000
                      *** Initiating the SOSCF procedure ***
                           *** Shutting down DIIS ***
                      *** Re-Reading the Fockian *** 
                      *** Removing any level shift *** 
ITER      Energy       Delta-E        Grad      Rot      Max-DP    RMS-DP
  6   -506.65147584  -0.0001428149  0.000626  0.000626  0.007665  0.000085
               *** Restarting incremental Fock matrix formation ***
  7   -506.65149218  -0.0000163416  0.000324  0.001646  0.004567  0.000066
  8   -506.65148911   0.0000030733  0.000512  0.001050  0.001449  0.000020
  9   -506.65149701  -0.0000078998  0.000102  0.000414  0.001549  0.000018
 10   -506.65149696   0.0000000547  0.000090  0.000291  0.000164  0.000003
 11   -506.65149732  -0.0000003638  0.000047  0.000228  0.000474  0.000007
 12   -506.65149733  -0.0000000149  0.000023  0.000048  0.000181  0.000002
 13   -506.65149738  -0.0000000416  0.000015  0.000094  0.000397  0.000004
 14   -506.65149738  -0.0000000079  0.000011  0.000036  0.000106  0.000001
 15   -506.65149739  -0.0000000075  0.000005  0.000027  0.000070  0.000001
 16   -506.65149739  -0.0000000010  0.000006  0.000019  0.000084  0.000001
                  ***Gradient check signals convergence***
              ***Rediagonalizing the Fockian in SOSCF/NRSCF***

               *****************************************************
               *                     SUCCESS                       *
               *           SCF CONVERGED AFTER  17 CYCLES          *
               *****************************************************


----------------
TOTAL SCF ENERGY
----------------

Total Energy       :         -506.65149739 Eh          -13786.68815 eV

Components:
Nuclear Repulsion  :          595.39621701 Eh           16201.55474 eV
Electronic Energy  :        -1102.04771440 Eh          -29988.24288 eV
One Electron Energy:        -1870.93282192 Eh          -50910.67033 eV
Two Electron Energy:          768.88510752 Eh           20922.42745 eV
CPCM Dielectric    :           -0.02500362 Eh              -0.68038 eV

Virial components:
Potential Energy   :        -1011.39334059 Eh          -27521.41196 eV
Kinetic Energy     :          504.74184319 Eh           13734.72381 eV
Virial Ratio       :            2.00378343


DFT components:
N(Alpha)           :       41.000004233940 electrons
N(Beta)            :       41.000004233940 electrons
N(Total)           :       82.000008467881 electrons
E(X)               :      -68.902259327412 Eh       
E(C)               :       -2.717741510581 Eh       
E(XC)              :      -71.620000837993 Eh       
DFET-embed. en.    :        0.000000000000 Eh       
CPCM Solvation Model Properties:
Surface-charge          :           -0.02676611
Charge-correction       :            0.00000526 Eh               0.00014 eV
Free-energy (cav+disp)  :  This term is not implemented in the current solvation scheme

---------------
SCF CONVERGENCE
---------------

  Last Energy change         ...   -5.2489e-10  Tolerance :   1.0000e-08
  Last MAX-Density change    ...    2.3606e-04  Tolerance :   1.0000e-07
  Last RMS-Density change    ...    2.9515e-06  Tolerance :   5.0000e-09
  Last Orbital Gradient      ...    7.3417e-07  Tolerance :   1.0000e-05
  Last Orbital Rotation      ...    4.1653e-06  Tolerance :   1.0000e-05

             **** THE GBW FILE WAS UPDATED (Keton-CLi.gbw) ****
             **** DENSITY Keton-CLi.scfp WAS UPDATED ****
             **** ENERGY FILE WAS UPDATED (Keton-CLi.en.tmp) ****
             **** THE GBW FILE WAS UPDATED (Keton-CLi.gbw) ****
             **** DENSITY Keton-CLi.scfp WAS UPDATED ****
----------------
ORBITAL ENERGIES
----------------

  NO   OCC          E(Eh)            E(eV) 
   0   2.0000     -18.910250      -514.5741 
   1   2.0000     -18.822250      -512.1795 
   2   2.0000     -10.038179      -273.1527 
   3   2.0000     -10.030284      -272.9379 
   4   2.0000     -10.014279      -272.5024 
   5   2.0000      -9.982961      -271.6502 
   6   2.0000      -9.980696      -271.5886 
   7   2.0000      -9.977962      -271.5142 
   8   2.0000      -9.973691      -271.3979 
   9   2.0000      -9.971232      -271.3310 
  10   2.0000      -9.935518      -270.3592 
  11   2.0000      -1.894948       -51.5641 
  12   2.0000      -0.994914       -27.0730 
  13   2.0000      -0.897296       -24.4167 
  14   2.0000      -0.791053       -21.5257 
  15   2.0000      -0.702965       -19.1287 
  16   2.0000      -0.696532       -18.9536 
  17   2.0000      -0.647817       -17.6280 
  18   2.0000      -0.635906       -17.3039 
  19   2.0000      -0.558278       -15.1915 
  20   2.0000      -0.544678       -14.8214 
  21   2.0000      -0.497331       -13.5331 
  22   2.0000      -0.457373       -12.4457 
  23   2.0000      -0.435627       -11.8540 
  24   2.0000      -0.433755       -11.8031 
  25   2.0000      -0.420824       -11.4512 
  26   2.0000      -0.404389       -11.0040 
  27   2.0000      -0.383278       -10.4295 
  28   2.0000      -0.379620       -10.3300 
  29   2.0000      -0.364656        -9.9228 
  30   2.0000      -0.344272        -9.3681 
  31   2.0000      -0.334704        -9.1078 
  32   2.0000      -0.319869        -8.7041 
  33   2.0000      -0.310604        -8.4520 
  34   2.0000      -0.306535        -8.3412 
  35   2.0000      -0.283884        -7.7249 
  36   2.0000      -0.278833        -7.5874 
  37   2.0000      -0.227301        -6.1852 
  38   2.0000      -0.204001        -5.5511 
  39   2.0000      -0.195285        -5.3140 
  40   2.0000      -0.164656        -4.4805 
  41   0.0000      -0.039065        -1.0630 
  42   0.0000      -0.024277        -0.6606 
  43   0.0000      -0.019660        -0.5350 
  44   0.0000       0.031847         0.8666 
  45   0.0000       0.043890         1.1943 
  46   0.0000       0.047919         1.3039 
  47   0.0000       0.057089         1.5535 
  48   0.0000       0.062594         1.7033 
  49   0.0000       0.065912         1.7936 
  50   0.0000       0.080531         2.1913 
  51   0.0000       0.096820         2.6346 
  52   0.0000       0.100534         2.7357 
  53   0.0000       0.112450         3.0599 
  54   0.0000       0.116291         3.1644 
  55   0.0000       0.119447         3.2503 
  56   0.0000       0.127875         3.4797 
  57   0.0000       0.131781         3.5859 
  58   0.0000       0.132325         3.6007 
  59   0.0000       0.148374         4.0375 
  60   0.0000       0.155760         4.2384 
  61   0.0000       0.180910         4.9228 
  62   0.0000       0.187500         5.1021 
  63   0.0000       0.192101         5.2273 
  64   0.0000       0.201009         5.4697 
  65   0.0000       0.207321         5.6415 
  66   0.0000       0.214035         5.8242 
  67   0.0000       0.223528         6.0825 
  68   0.0000       0.232054         6.3145 
  69   0.0000       0.236783         6.4432 
  70   0.0000       0.251258         6.8371 
  71   0.0000       0.263000         7.1566 
  72   0.0000       0.264344         7.1932 
  73   0.0000       0.270972         7.3735 
  74   0.0000       0.273591         7.4448 
  75   0.0000       0.287425         7.8212 
  76   0.0000       0.303361         8.2549 
  77   0.0000       0.308885         8.4052 
  78   0.0000       0.318355         8.6629 
  79   0.0000       0.328004         8.9255 
  80   0.0000       0.344384         9.3712 
  81   0.0000       0.348677         9.4880 
  82   0.0000       0.355038         9.6611 
  83   0.0000       0.363104         9.8806 
  84   0.0000       0.369016        10.0414 
  85   0.0000       0.382692        10.4136 
  86   0.0000       0.389704        10.6044 
  87   0.0000       0.397554        10.8180 
  88   0.0000       0.402554        10.9540 
  89   0.0000       0.407637        11.0924 
  90   0.0000       0.417862        11.3706 
  91   0.0000       0.421991        11.4830 
  92   0.0000       0.430101        11.7036 
  93   0.0000       0.436373        11.8743 
  94   0.0000       0.441464        12.0129 
  95   0.0000       0.453215        12.3326 
  96   0.0000       0.457931        12.4609 
  97   0.0000       0.462163        12.5761 
  98   0.0000       0.465821        12.6756 
  99   0.0000       0.468399        12.7458 
 100   0.0000       0.480579        13.0772 
 101   0.0000       0.487545        13.2668 
 102   0.0000       0.488807        13.3011 
 103   0.0000       0.505893        13.7660 
 104   0.0000       0.523992        14.2585 
 105   0.0000       0.540585        14.7101 
 106   0.0000       0.551799        15.0152 
 107   0.0000       0.574122        15.6226 
 108   0.0000       0.579805        15.7773 
 109   0.0000       0.589519        16.0416 
 110   0.0000       0.602962        16.4074 
 111   0.0000       0.618909        16.8414 
 112   0.0000       0.626992        17.0613 
 113   0.0000       0.632921        17.2227 
 114   0.0000       0.635179        17.2841 
 115   0.0000       0.658019        17.9056 
 116   0.0000       0.666842        18.1457 
 117   0.0000       0.674427        18.3521 
 118   0.0000       0.678099        18.4520 
 119   0.0000       0.690947        18.8016 
 120   0.0000       0.717333        19.5196 
 121   0.0000       0.725980        19.7549 
 122   0.0000       0.735464        20.0130 
 123   0.0000       0.745116        20.2756 
 124   0.0000       0.748332        20.3632 
 125   0.0000       0.768851        20.9215 
 126   0.0000       0.779979        21.2243 
 127   0.0000       0.797291        21.6954 
 128   0.0000       0.805930        21.9305 
 129   0.0000       0.814713        22.1695 
 130   0.0000       0.832921        22.6649 
 131   0.0000       0.834022        22.6949 
 132   0.0000       0.846751        23.0413 
 133   0.0000       0.858019        23.3479 
 134   0.0000       0.871296        23.7092 
 135   0.0000       0.876046        23.8384 
 136   0.0000       0.902643        24.5622 
 137   0.0000       0.930907        25.3313 
 138   0.0000       0.933084        25.3905 
 139   0.0000       0.954713        25.9791 
 140   0.0000       0.961282        26.1578 
 141   0.0000       0.966964        26.3124 
 142   0.0000       0.980130        26.6707 
 143   0.0000       1.003367        27.3030 
 144   0.0000       1.007629        27.4190 
 145   0.0000       1.037844        28.2412 
 146   0.0000       1.051157        28.6034 
 147   0.0000       1.086337        29.5607 
 148   0.0000       1.091841        29.7105 
 149   0.0000       1.108724        30.1699 
 150   0.0000       1.115213        30.3465 
 151   0.0000       1.119708        30.4688 
 152   0.0000       1.150990        31.3200 
 153   0.0000       1.181759        32.1573 
 154   0.0000       1.192993        32.4630 
 155   0.0000       1.202294        32.7161 
 156   0.0000       1.223416        33.2908 
 157   0.0000       1.242095        33.7991 
 158   0.0000       1.256259        34.1846 
 159   0.0000       1.268068        34.5059 
 160   0.0000       1.285120        34.9699 
 161   0.0000       1.291716        35.1494 
 162   0.0000       1.313237        35.7350 
 163   0.0000       1.341690        36.5092 
 164   0.0000       1.379299        37.5326 
 165   0.0000       1.399932        38.0941 
 166   0.0000       1.407810        38.3085 
 167   0.0000       1.420299        38.6483 
 168   0.0000       1.432162        38.9711 
 169   0.0000       1.442008        39.2390 
 170   0.0000       1.457433        39.6588 
 171   0.0000       1.476143        40.1679 
 172   0.0000       1.481329        40.3090 
 173   0.0000       1.493942        40.6522 
 174   0.0000       1.495171        40.6857 
 175   0.0000       1.514391        41.2087 
 176   0.0000       1.521795        41.4102 
 177   0.0000       1.547932        42.1214 
 178   0.0000       1.559848        42.4456 
 179   0.0000       1.574474        42.8436 
 180   0.0000       1.583462        43.0882 
 181   0.0000       1.617419        44.0122 
 182   0.0000       1.622331        44.1459 
 183   0.0000       1.630355        44.3642 
 184   0.0000       1.633151        44.4403 
 185   0.0000       1.643281        44.7160 
 186   0.0000       1.669880        45.4397 
 187   0.0000       1.677067        45.6353 
 188   0.0000       1.691514        46.0284 
 189   0.0000       1.715627        46.6846 
 190   0.0000       1.723743        46.9054 
 191   0.0000       1.742821        47.4246 
 192   0.0000       1.757081        47.8126 
 193   0.0000       1.777245        48.3613 
 194   0.0000       1.792977        48.7894 
 195   0.0000       1.809181        49.2303 
 196   0.0000       1.817290        49.4510 
 197   0.0000       1.840189        50.0741 
 198   0.0000       1.850380        50.3514 
 199   0.0000       1.862983        50.6943 
 200   0.0000       1.879420        51.1416 
 201   0.0000       1.885983        51.3202 
 202   0.0000       1.910373        51.9839 
 203   0.0000       1.941878        52.8412 
 204   0.0000       1.975027        53.7432 
 205   0.0000       1.983884        53.9842 
 206   0.0000       1.990258        54.1577 
 207   0.0000       2.034778        55.3691 
 208   0.0000       2.041325        55.5473 
 209   0.0000       2.048869        55.7526 
 210   0.0000       2.055261        55.9265 
 211   0.0000       2.081425        56.6385 
 212   0.0000       2.103708        57.2448 
 213   0.0000       2.113351        57.5072 
 214   0.0000       2.142119        58.2900 
 215   0.0000       2.148750        58.4705 
 216   0.0000       2.196553        59.7713 
 217   0.0000       2.207270        60.0629 
 218   0.0000       2.250885        61.2497 
 219   0.0000       2.254763        61.3552 
 220   0.0000       2.264315        61.6151 
 221   0.0000       2.268785        61.7368 
 222   0.0000       2.299436        62.5708 
 223   0.0000       2.316246        63.0283 
 224   0.0000       2.339926        63.6726 
 225   0.0000       2.347037        63.8661 
 226   0.0000       2.393839        65.1397 
 227   0.0000       2.403778        65.4101 
 228   0.0000       2.415767        65.7364 
 229   0.0000       2.434312        66.2410 
 230   0.0000       2.441460        66.4355 
 231   0.0000       2.460802        66.9618 
 232   0.0000       2.501815        68.0778 
 233   0.0000       2.519953        68.5714 
 234   0.0000       2.520303        68.5809 
 235   0.0000       2.539040        69.0908 
 236   0.0000       2.547395        69.3181 
 237   0.0000       2.559262        69.6411 
 238   0.0000       2.573531        70.0293 
 239   0.0000       2.588709        70.4424 
 240   0.0000       2.599698        70.7414 
 241   0.0000       2.624281        71.4103 
 242   0.0000       2.632487        71.6336 
 243   0.0000       2.648079        72.0579 
 244   0.0000       2.657343        72.3100 
 245   0.0000       2.668826        72.6225 
 246   0.0000       2.687706        73.1362 
 247   0.0000       2.692484        73.2662 
 248   0.0000       2.703491        73.5657 
 249   0.0000       2.715017        73.8794 
 250   0.0000       2.729488        74.2732 
 251   0.0000       2.743885        74.6649 
 252   0.0000       2.754460        74.9527 
 253   0.0000       2.765754        75.2600 
 254   0.0000       2.802550        76.2613 
 255   0.0000       2.812011        76.5187 
 256   0.0000       2.819955        76.7349 
 257   0.0000       2.830270        77.0156 
 258   0.0000       2.844345        77.3986 
 259   0.0000       2.848070        77.4999 
 260   0.0000       2.855999        77.7157 
 261   0.0000       2.866677        78.0062 
 262   0.0000       2.878097        78.3170 
 263   0.0000       2.911874        79.2361 
 264   0.0000       2.919869        79.4537 
 265   0.0000       2.957570        80.4796 
 266   0.0000       2.967364        80.7461 
 267   0.0000       2.974437        80.9385 
 268   0.0000       2.977362        81.0181 
 269   0.0000       3.008931        81.8772 
 270   0.0000       3.026549        82.3566 
 271   0.0000       3.031201        82.4832 
 272   0.0000       3.044912        82.8563 
 273   0.0000       3.064581        83.3915 
 274   0.0000       3.088999        84.0559 
 275   0.0000       3.102700        84.4288 
 276   0.0000       3.117494        84.8313 
 277   0.0000       3.129619        85.1613 
 278   0.0000       3.142507        85.5120 
 279   0.0000       3.156145        85.8831 
 280   0.0000       3.171995        86.3144 
 281   0.0000       3.192767        86.8796 
 282   0.0000       3.200751        87.0969 
 283   0.0000       3.206913        87.2645 
 284   0.0000       3.223242        87.7089 
 285   0.0000       3.229632        87.8827 
 286   0.0000       3.235233        88.0352 
 287   0.0000       3.241902        88.2166 
 288   0.0000       3.252487        88.5047 
 289   0.0000       3.275828        89.1398 
 290   0.0000       3.292109        89.5828 
 291   0.0000       3.302117        89.8552 
 292   0.0000       3.324385        90.4611 
 293   0.0000       3.335597        90.7662 
 294   0.0000       3.339215        90.8647 
 295   0.0000       3.342509        90.9543 
 296   0.0000       3.361915        91.4824 
 297   0.0000       3.382169        92.0335 
 298   0.0000       3.394999        92.3826 
 299   0.0000       3.401141        92.5497 
 300   0.0000       3.408029        92.7372 
 301   0.0000       3.415111        92.9299 
 302   0.0000       3.430263        93.3422 
 303   0.0000       3.439315        93.5885 
 304   0.0000       3.451871        93.9302 
 305   0.0000       3.476327        94.5957 
 306   0.0000       3.489942        94.9662 
 307   0.0000       3.496984        95.1578 
 308   0.0000       3.528430        96.0135 
 309   0.0000       3.541617        96.3723 
 310   0.0000       3.542823        96.4051 
 311   0.0000       3.551618        96.6444 
 312   0.0000       3.557540        96.8056 
 313   0.0000       3.576540        97.3226 
 314   0.0000       3.595522        97.8391 
 315   0.0000       3.630484        98.7905 
 316   0.0000       3.648514        99.2811 
 317   0.0000       3.678253       100.0904 
 318   0.0000       3.690200       100.4154 
 319   0.0000       3.708200       100.9053 
 320   0.0000       3.750715       102.0621 
 321   0.0000       3.810219       103.6813 
 322   0.0000       3.814286       103.7920 
 323   0.0000       3.851830       104.8136 
 324   0.0000       3.860548       105.0508 
 325   0.0000       3.901369       106.1616 
 326   0.0000       3.936728       107.1238 
 327   0.0000       3.972951       108.1095 
 328   0.0000       4.023161       109.4758 
 329   0.0000       4.050672       110.2244 
 330   0.0000       4.086160       111.1901 
 331   0.0000       4.109243       111.8182 
 332   0.0000       4.131219       112.4162 
 333   0.0000       4.187518       113.9482 
 334   0.0000       4.205161       114.4283 
 335   0.0000       4.211778       114.6083 
 336   0.0000       4.228262       115.0569 
 337   0.0000       4.238544       115.3367 
 338   0.0000       4.244209       115.4908 
 339   0.0000       4.268904       116.1628 
 340   0.0000       4.275264       116.3359 
 341   0.0000       4.297700       116.9464 
 342   0.0000       4.311472       117.3211 
 343   0.0000       4.337933       118.0412 
 344   0.0000       4.349811       118.3644 
 345   0.0000       4.402268       119.7918 
 346   0.0000       4.451990       121.1448 
 347   0.0000       4.469426       121.6193 
 348   0.0000       4.500167       122.4558 
 349   0.0000       4.516495       122.9001 
 350   0.0000       4.546506       123.7167 
 351   0.0000       4.570672       124.3743 
 352   0.0000       4.636006       126.1521 
 353   0.0000       4.656323       126.7050 
 354   0.0000       4.702897       127.9723 
 355   0.0000       4.738905       128.9522 
 356   0.0000       4.757189       129.4497 
 357   0.0000       4.782065       130.1266 
 358   0.0000       4.800254       130.6215 
 359   0.0000       4.861261       132.2816 
 360   0.0000       4.951641       134.7410 
 361   0.0000       4.991592       135.8281 
 362   0.0000       5.042436       137.2117 
 363   0.0000       5.126221       139.4916 
 364   0.0000       5.212945       141.8514 
 365   0.0000       5.225614       142.1962 
 366   0.0000       5.245264       142.7309 
 367   0.0000       5.291936       144.0009 
 368   0.0000       5.332694       145.1100 
 369   0.0000       5.346753       145.4926 
 370   0.0000       5.404537       147.0649 
 371   0.0000       5.464642       148.7005 
 372   0.0000       5.505540       149.8134 
 373   0.0000       5.544735       150.8799 
 374   0.0000       5.611716       152.7026 
 375   0.0000       5.698017       155.0509 
 376   0.0000       5.742871       156.2715 
 377   0.0000       5.748117       156.4142 
 378   0.0000       5.800854       157.8493 
 379   0.0000       5.903005       160.6289 
 380   0.0000       5.917767       161.0306 
 381   0.0000       5.968330       162.4065 
 382   0.0000       6.001968       163.3219 
 383   0.0000       6.328988       172.2205 
 384   0.0000       6.364138       173.1770 
 385   0.0000       6.377923       173.5521 
 386   0.0000       6.414409       174.5450 
 387   0.0000       6.519259       177.3981 
 388   0.0000       6.524288       177.5349 
 389   0.0000       6.602158       179.6539 
 390   0.0000       6.743369       183.4964 
 391   0.0000       6.787481       184.6967 
 392   0.0000       6.831942       185.9066 
 393   0.0000       7.007303       190.6784 
 394   0.0000       7.120944       193.7707 
 395   0.0000       7.145962       194.4515 
 396   0.0000       7.391052       201.1207 
 397   0.0000      14.786664       402.3656 
 398   0.0000      22.065788       600.4406 
 399   0.0000      22.340294       607.9103 
 400   0.0000      22.360651       608.4643 
 401   0.0000      22.626068       615.6866 
 402   0.0000      22.700408       617.7095 
 403   0.0000      22.781912       619.9273 
 404   0.0000      22.940948       624.2549 
 405   0.0000      23.087610       628.2458 
 406   0.0000      23.339707       635.1057 
 407   0.0000      43.901270      1194.6143 
 408   0.0000      44.161881      1201.7059 

                    ********************************
                    * MULLIKEN POPULATION ANALYSIS *
                    ********************************

-----------------------
MULLIKEN ATOMIC CHARGES
-----------------------
   0 C :    0.322426
   1 C :   -0.272082
   2 C :   -0.140297
   3 C :   -0.233709
   4 C :    0.169794
   5 C :   -0.312934
   6 H :    0.098377
   7 H :    0.133404
   8 H :    0.122567
   9 H :    0.116326
  10 O :   -0.259109
  11 C :   -0.221551
  12 H :    0.134909
  13 H :    0.149203
  14 H :    0.134377
  15 C :    0.349943
  16 C :   -0.510475
  17 H :    0.117450
  18 Li:    0.804696
  19 H :    0.130129
  20 O :   -0.833442
Sum of atomic charges:   -0.0000000

--------------------------------
MULLIKEN REDUCED ORBITAL CHARGES
--------------------------------
  0 C s       :     2.956702  s :     2.956702
      pz      :     0.943727  p :     2.529776
      px      :     0.767973
      py      :     0.818077
      dz2     :     0.007572  d :     0.175491
      dxz     :     0.035597
      dyz     :     0.035037
      dx2y2   :     0.049785
      dxy     :     0.047500
      f0      :     0.002182  f :     0.015604
      f+1     :     0.001014
      f-1     :     0.001039
      f+2     :     0.001199
      f-2     :     0.002592
      f+3     :     0.004772
      f-3     :     0.002805
  1 C s       :     3.263739  s :     3.263739
      pz      :     1.044595  p :     2.914352
      px      :     0.951776
      py      :     0.917982
      dz2     :     0.006221  d :     0.086230
      dxz     :     0.007805
      dyz     :     0.018235
      dx2y2   :     0.029202
      dxy     :     0.024767
      f0      :     0.001346  f :     0.007760
      f+1     :     0.000789
      f-1     :     0.000681
      f+2     :     0.000717
      f-2     :     0.000731
      f+3     :     0.002077
      f-3     :     0.001419
  2 C s       :     3.178956  s :     3.178956
      pz      :     0.969916  p :     2.852634
      px      :     0.937268
      py      :     0.945449
      dz2     :     0.004346  d :     0.100693
      dxz     :     0.025995
      dyz     :     0.006270
      dx2y2   :     0.043832
      dxy     :     0.020251
      f0      :     0.001401  f :     0.008014
      f+1     :     0.000534
      f-1     :     0.000793
      f+2     :     0.000415
      f-2     :     0.001260
      f+3     :     0.002226
      f-3     :     0.001385
  3 C s       :     3.249570  s :     3.249570
      pz      :     1.002750  p :     2.877260
      px      :     0.946782
      py      :     0.927729
      dz2     :     0.004952  d :     0.099084
      dxz     :     0.012602
      dyz     :     0.014960
      dx2y2   :     0.022472
      dxy     :     0.044098
      f0      :     0.001349  f :     0.007795
      f+1     :     0.000618
      f-1     :     0.000668
      f+2     :     0.001089
      f-2     :     0.000396
      f+3     :     0.002192
      f-3     :     0.001483
  4 C s       :     3.125541  s :     3.125541
      pz      :     0.920255  p :     2.561021
      px      :     0.812589
      py      :     0.828177
      dz2     :     0.007537  d :     0.133247
      dxz     :     0.023419
      dyz     :     0.023551
      dx2y2   :     0.041256
      dxy     :     0.037484
      f0      :     0.001575  f :     0.010397
      f+1     :     0.000774
      f-1     :     0.000700
      f+2     :     0.001037
      f-2     :     0.001104
      f+3     :     0.003303
      f-3     :     0.001904
  5 C s       :     3.354237  s :     3.354237
      pz      :     1.013509  p :     2.863191
      px      :     0.927195
      py      :     0.922487
      dz2     :     0.004141  d :     0.087441
      dxz     :     0.021217
      dyz     :     0.005841
      dx2y2   :     0.036982
      dxy     :     0.019260
      f0      :     0.001390  f :     0.008065
      f+1     :     0.000624
      f-1     :     0.000756
      f+2     :     0.000498
      f-2     :     0.001024
      f+3     :     0.002222
      f-3     :     0.001552
  6 H s       :     0.880966  s :     0.880966
      pz      :     0.005032  p :     0.020657
      px      :     0.004044
      py      :     0.011580
  7 H s       :     0.845859  s :     0.845859
      pz      :     0.005344  p :     0.020737
      px      :     0.010505
      py      :     0.004887
  8 H s       :     0.857407  s :     0.857407
      pz      :     0.004840  p :     0.020026
      px      :     0.003920
      py      :     0.011267
  9 H s       :     0.863098  s :     0.863098
      pz      :     0.005146  p :     0.020576
      px      :     0.008882
      py      :     0.006548
 10 O s       :     3.747461  s :     3.747461
      pz      :     1.742574  p :     4.468989
      px      :     1.179239
      py      :     1.547176
      dz2     :     0.004429  d :     0.040578
      dxz     :     0.007335
      dyz     :     0.004131
      dx2y2   :     0.009583
      dxy     :     0.015100
      f0      :     0.000272  f :     0.002080
      f+1     :     0.000384
      f-1     :     0.000174
      f+2     :     0.000096
      f-2     :     0.000244
      f+3     :     0.000440
      f-3     :     0.000471
 11 C s       :     3.235812  s :     3.235812
      pz      :     1.083590  p :     2.872365
      px      :     0.717568
      py      :     1.071206
      dz2     :     0.008949  d :     0.104239
      dxz     :     0.031577
      dyz     :     0.018213
      dx2y2   :     0.016072
      dxy     :     0.029429
      f0      :     0.001174  f :     0.009136
      f+1     :     0.000869
      f-1     :     0.001262
      f+2     :     0.001595
      f-2     :     0.000552
      f+3     :     0.002163
      f-3     :     0.001520
 12 H s       :     0.846611  s :     0.846611
      pz      :     0.008119  p :     0.018481
      px      :     0.003417
      py      :     0.006945
 13 H s       :     0.831782  s :     0.831782
      pz      :     0.004619  p :     0.019015
      px      :     0.005705
      py      :     0.008691
 14 H s       :     0.847159  s :     0.847159
      pz      :     0.009216  p :     0.018465
      px      :     0.003592
      py      :     0.005656
 15 C s       :     3.131628  s :     3.131628
      pz      :     0.861028  p :     2.350099
      px      :     0.800225
      py      :     0.688846
      dz2     :     0.027980  d :     0.151058
      dxz     :     0.024729
      dyz     :     0.024984
      dx2y2   :     0.031995
      dxy     :     0.041370
      f0      :     0.000943  f :     0.017272
      f+1     :     0.001209
      f-1     :     0.002862
      f+2     :     0.002557
      f-2     :     0.002248
      f+3     :     0.005081
      f-3     :     0.002372
 16 C s       :     3.264035  s :     3.264035
      pz      :     1.146928  p :     3.192630
      px      :     0.988358
      py      :     1.057344
      dz2     :     0.006672  d :     0.048284
      dxz     :     0.006197
      dyz     :     0.007548
      dx2y2   :     0.019082
      dxy     :     0.008785
      f0      :     0.000492  f :     0.005527
      f+1     :     0.001141
      f-1     :     0.000652
      f+2     :     0.001006
      f-2     :     0.000440
      f+3     :     0.000807
      f-3     :     0.000989
 17 H s       :     0.861759  s :     0.861759
      pz      :     0.005730  p :     0.020791
      px      :     0.009840
      py      :     0.005221
 18 Lis       :     2.011897  s :     2.011897
      pz      :     0.054201  p :     0.183407
      px      :     0.058237
      py      :     0.070970
 19 H s       :     0.848467  s :     0.848467
      pz      :     0.007364  p :     0.021405
      px      :     0.004061
      py      :     0.009980
 20 O s       :     3.918742  s :     3.918742
      pz      :     1.657389  p :     4.895663
      px      :     1.867178
      py      :     1.371096
      dz2     :     0.002801  d :     0.017329
      dxz     :     0.000926
      dyz     :     0.004922
      dx2y2   :     0.004383
      dxy     :     0.004297
      f0      :     0.000142  f :     0.001708
      f+1     :     0.000008
      f-1     :     0.000365
      f+2     :     0.000387
      f-2     :     0.000162
      f+3     :     0.000292
      f-3     :     0.000351


                     *******************************
                     * LOEWDIN POPULATION ANALYSIS *
                     *******************************

----------------------
LOEWDIN ATOMIC CHARGES
----------------------
   0 C :   -0.260470
   1 C :   -0.149753
   2 C :   -0.149913
   3 C :   -0.128179
   4 C :   -0.116229
   5 C :   -0.087733
   6 H :    0.153243
   7 H :    0.149780
   8 H :    0.146531
   9 H :    0.147236
  10 O :    0.232262
  11 C :   -0.328268
  12 H :    0.109922
  13 H :    0.116166
  14 H :    0.109866
  15 C :   -0.370477
  16 C :   -0.290147
  17 H :    0.111406
  18 Li:    0.645973
  19 H :    0.115646
  20 O :   -0.156861

-------------------------------
LOEWDIN REDUCED ORBITAL CHARGES
-------------------------------
  0 C s       :     2.713532  s :     2.713532
      pz      :     0.868270  p :     2.771143
      px      :     0.919870
      py      :     0.983003
      dz2     :     0.048752  d :     0.680747
      dxz     :     0.105371
      dyz     :     0.112289
      dx2y2   :     0.189336
      dxy     :     0.224998
      f0      :     0.006043  f :     0.095048
      f+1     :     0.006959
      f-1     :     0.006988
      f+2     :     0.008047
      f-2     :     0.017024
      f+3     :     0.031094
      f-3     :     0.018895
  1 C s       :     2.758043  s :     2.758043
      pz      :     0.941843  p :     2.971341
      px      :     1.001832
      py      :     1.027667
      dz2     :     0.028231  d :     0.376657
      dxz     :     0.023826
      dyz     :     0.066217
      dx2y2   :     0.136986
      dxy     :     0.121398
      f0      :     0.003180  f :     0.043712
      f+1     :     0.003523
      f-1     :     0.004399
      f+2     :     0.004860
      f-2     :     0.004889
      f+3     :     0.013470
      f-3     :     0.009392
  2 C s       :     2.762148  s :     2.762148
      pz      :     0.885983  p :     2.936195
      px      :     1.066638
      py      :     0.983575
      dz2     :     0.025908  d :     0.406812
      dxz     :     0.092410
      dyz     :     0.015626
      dx2y2   :     0.163170
      dxy     :     0.109698
      f0      :     0.003084  f :     0.044758
      f+1     :     0.004478
      f-1     :     0.003108
      f+2     :     0.002234
      f-2     :     0.008098
      f+3     :     0.014428
      f-3     :     0.009328
  3 C s       :     2.754081  s :     2.754081
      pz      :     0.914349  p :     2.941689
      px      :     1.017059
      py      :     1.010280
      dz2     :     0.026717  d :     0.388678
      dxz     :     0.039681
      dyz     :     0.050927
      dx2y2   :     0.108034
      dxy     :     0.163319
      f0      :     0.003146  f :     0.043731
      f+1     :     0.003559
      f-1     :     0.003884
      f+2     :     0.007266
      f-2     :     0.002020
      f+3     :     0.014239
      f-3     :     0.009618
  4 C s       :     2.705306  s :     2.705306
      pz      :     0.828946  p :     2.835648
      px      :     0.977024
      py      :     1.029677
      dz2     :     0.036899  d :     0.517577
      dxz     :     0.070103
      dyz     :     0.082114
      dx2y2   :     0.163830
      dxy     :     0.164630
      f0      :     0.003850  f :     0.057699
      f+1     :     0.004251
      f-1     :     0.004352
      f+2     :     0.006828
      f-2     :     0.007286
      f+3     :     0.019647
      f-3     :     0.011485
  5 C s       :     2.751398  s :     2.751398
      pz      :     0.916425  p :     2.921361
      px      :     1.019209
      py      :     0.985728
      dz2     :     0.026896  d :     0.371914
      dxz     :     0.072971
      dyz     :     0.015538
      dx2y2   :     0.153620
      dxy     :     0.102889
      f0      :     0.003260  f :     0.043060
      f+1     :     0.004496
      f-1     :     0.003062
      f+2     :     0.002405
      f-2     :     0.006976
      f+3     :     0.013319
      f-3     :     0.009543
  6 H s       :     0.786142  s :     0.786142
      pz      :     0.014674  p :     0.060615
      px      :     0.011518
      py      :     0.034423
  7 H s       :     0.788546  s :     0.788546
      pz      :     0.015534  p :     0.061674
      px      :     0.031310
      py      :     0.014830
  8 H s       :     0.794728  s :     0.794728
      pz      :     0.013747  p :     0.058740
      px      :     0.011600
      py      :     0.033394
  9 H s       :     0.792267  s :     0.792267
      pz      :     0.014880  p :     0.060497
      px      :     0.026005
      py      :     0.019611
 10 O s       :     3.251313  s :     3.251313
      pz      :     1.616067  p :     4.397033
      px      :     1.257217
      py      :     1.523750
      dz2     :     0.010340  d :     0.112781
      dxz     :     0.021565
      dyz     :     0.008390
      dx2y2   :     0.033265
      dxy     :     0.039222
      f0      :     0.000712  f :     0.006610
      f+1     :     0.000829
      f-1     :     0.000290
      f+2     :     0.000392
      f-2     :     0.000938
      f+3     :     0.001816
      f-3     :     0.001632
 11 C s       :     2.861386  s :     2.861386
      pz      :     1.104857  p :     3.016759
      px      :     0.823003
      py      :     1.088898
      dz2     :     0.048446  d :     0.393027
      dxz     :     0.091160
      dyz     :     0.064324
      dx2y2   :     0.066118
      dxy     :     0.122979
      f0      :     0.006421  f :     0.057097
      f+1     :     0.007585
      f-1     :     0.003877
      f+2     :     0.009788
      f-2     :     0.003383
      f+3     :     0.013255
      f-3     :     0.012788
 12 H s       :     0.829010  s :     0.829010
      pz      :     0.027994  p :     0.061068
      px      :     0.009903
      py      :     0.023171
 13 H s       :     0.823766  s :     0.823766
      pz      :     0.013690  p :     0.060068
      px      :     0.016472
      py      :     0.029906
 14 H s       :     0.829100  s :     0.829100
      pz      :     0.032335  p :     0.061034
      px      :     0.010471
      py      :     0.018228
 15 C s       :     2.728505  s :     2.728505
      pz      :     0.875384  p :     2.789497
      px      :     1.026672
      py      :     0.887441
      dz2     :     0.111361  d :     0.751133
      dxz     :     0.096519
      dyz     :     0.135551
      dx2y2   :     0.195133
      dxy     :     0.212569
      f0      :     0.007156  f :     0.101342
      f+1     :     0.006736
      f-1     :     0.012525
      f+2     :     0.016858
      f-2     :     0.013747
      f+3     :     0.028328
      f-3     :     0.015992
 16 C s       :     2.843970  s :     2.843970
      pz      :     1.096025  p :     3.193936
      px      :     1.046737
      py      :     1.051174
      dz2     :     0.023318  d :     0.224891
      dxz     :     0.027144
      dyz     :     0.033619
      dx2y2   :     0.091591
      dxy     :     0.049219
      f0      :     0.002736  f :     0.027349
      f+1     :     0.004356
      f-1     :     0.001633
      f+2     :     0.003729
      f-2     :     0.004475
      f+3     :     0.005285
      f-3     :     0.005134
 17 H s       :     0.824287  s :     0.824287
      pz      :     0.016836  p :     0.064307
      px      :     0.030064
      py      :     0.017407
 18 Lis       :     2.042790  s :     2.042790
      pz      :     0.084238  p :     0.311237
      px      :     0.081844
      py      :     0.145155
 19 H s       :     0.818225  s :     0.818225
      pz      :     0.021848  p :     0.066129
      px      :     0.012695
      py      :     0.031587
 20 O s       :     3.394395  s :     3.394395
      pz      :     1.575457  p :     4.696498
      px      :     1.680337
      py      :     1.440704
      dz2     :     0.008643  d :     0.061738
      dxz     :     0.003046
      dyz     :     0.017685
      dx2y2   :     0.016328
      dxy     :     0.016037
      f0      :     0.000349  f :     0.004229
      f+1     :     0.000012
      f-1     :     0.000865
      f+2     :     0.000909
      f-2     :     0.000460
      f+3     :     0.000843
      f-3     :     0.000792


[...]
     25       0.000015   0.000003   0.017013  -0.028745  -0.920774   0.242788
     26       0.000014   0.000105   0.000041  -0.000020  -0.002035   0.000530
     27       0.002686  -0.000094   0.003541  -0.058306  -0.229337  -0.684893
     28      -0.002513   0.000084  -0.002851   0.050389   0.192785   0.565883
     29       0.000184   0.000292   0.000145  -0.002615  -0.007538  -0.022460
     30       0.003367  -0.000029   0.000374  -0.000023  -0.000141  -0.000045
     31       0.000207  -0.000009   0.000181   0.000019   0.000145   0.000038
     32       0.000094   0.000242   0.000004  -0.000000   0.000003   0.000001
     33       0.030328   0.001920   0.038485   0.001308   0.000820  -0.000129
     34       0.035524   0.000757  -0.083467  -0.002296  -0.001824   0.000996
     35       0.000153  -0.094631  -0.000094   0.000007  -0.000009   0.000019
     36      -0.093941   0.099340   0.036159   0.000579   0.000714  -0.000661
     37      -0.346456   0.393421   0.102816   0.001342   0.003053  -0.003370
     38      -0.554182   0.582018   0.190946   0.002941   0.005761  -0.005572
     39      -0.183116   0.005234  -0.532729  -0.016817  -0.010811   0.003114
     40       0.271483  -0.006553   0.781993   0.024610   0.016889  -0.005915
     41      -0.003216  -0.023815  -0.008107  -0.000247  -0.000151   0.000030
     42      -0.124737  -0.127013   0.044744   0.000691   0.000976  -0.000921
     43      -0.362385  -0.395605   0.101544   0.001266   0.003066  -0.003347
     44       0.554324   0.560688  -0.181641  -0.002691  -0.005560   0.005312
     45      -0.000093  -0.000003  -0.000184   0.005103  -0.000143   0.000481
     46      -0.000029  -0.000001   0.000114  -0.004501   0.000197  -0.000201
     47       0.000005   0.000004   0.000033  -0.001198   0.000047   0.000044
     48       0.000309  -0.000001   0.001902  -0.062269   0.004263   0.008029
     49      -0.000139   0.000004  -0.000749   0.023192   0.000783   0.006602
     50      -0.000055  -0.000004  -0.000312   0.009893  -0.000210   0.000683
     51      -0.002899  -0.000004  -0.022140   0.730869  -0.048825  -0.092467
     52      -0.001364  -0.000000  -0.010231   0.337291  -0.021789  -0.040209
     53      -0.000082  -0.000003  -0.000416   0.013754  -0.000752  -0.001400
     54      -0.000013   0.000002   0.000005  -0.000026   0.000013  -0.000033
     55      -0.000038  -0.000002  -0.000015   0.000042  -0.000005  -0.000017
     56      -0.000006   0.000001  -0.000000   0.000012   0.000008  -0.000017
     57       0.000239  -0.000004   0.001684  -0.054607   0.002050   0.000067
     58       0.002792  -0.000047   0.017745  -0.567984   0.012372  -0.035343
     59       0.000579  -0.000042   0.003645  -0.116733   0.002229  -0.008182
     60       0.000039   0.000001   0.000012  -0.000043   0.000001  -0.000395
     61       0.000035   0.000001   0.000018   0.000002   0.000021  -0.000044
     62       0.000006   0.000003   0.000004  -0.000016   0.000005  -0.000019
                 60         61         62    
      0      -0.003197  -0.000131   0.000008
      1      -0.000054   0.003451  -0.000041
      2      -0.000070   0.000039   0.000007
      3       0.002637  -0.077640   0.001248
      4       0.000969  -0.031792   0.000608
      5       0.000061  -0.001425   0.000011
      6      -0.002464  -0.001322  -0.000353
      7      -0.010168  -0.020752  -0.000421
      8      -0.000056  -0.000037   0.000024
      9       0.019287   0.009502   0.005853
     10      -0.016463  -0.006202  -0.005093
     11       0.000658   0.000315   0.000262
     12       0.002146   0.000112   0.000530
     13       0.000035   0.000441  -0.000036
     14       0.000008   0.000019  -0.000037
     15       0.011154   0.000187  -0.000066
     16       0.079943  -0.002286  -0.000349
     17       0.000918  -0.000013   0.000031
     18      -0.134283   0.003175   0.000594
     19      -0.935488   0.027237   0.005128
     20      -0.011842   0.000332  -0.000009
     21      -0.033570   0.892725  -0.015558
     22      -0.013526   0.361727  -0.006315
     23      -0.000489   0.016045  -0.000345
     24       0.018472   0.031213   0.000868
     25       0.111935   0.214449   0.004030
     26       0.000286   0.000434   0.000021
     27      -0.222046  -0.095894  -0.073197
     28       0.184653   0.077283   0.060630
     29      -0.007151  -0.003119  -0.001936
     30       0.000372  -0.000148  -0.000033
     31       0.000017  -0.000372   0.000028
     32      -0.000000  -0.000008  -0.000001
     33       0.000149   0.000273  -0.000016
     34      -0.000138  -0.002935   0.000072
     35       0.000003  -0.000037  -0.000004
     36      -0.000481   0.001575  -0.000049
     37      -0.000777   0.010540  -0.000198
     38      -0.001209   0.017140  -0.000267
     39      -0.000004  -0.010990   0.000400
     40       0.000801   0.020769  -0.000712
     41      -0.000001  -0.000125   0.000008
     42      -0.000536   0.002385  -0.000066
     43      -0.000800   0.010660  -0.000225
     44       0.001167  -0.016618   0.000289
     45       0.000389   0.000225  -0.002342
     46       0.001363  -0.000225  -0.001534
     47       0.000173  -0.000029  -0.000166
     48       0.003029  -0.000651  -0.045910
     49       0.001214  -0.000047  -0.085019
     50      -0.000008   0.000025  -0.014532
     51      -0.038394   0.006954   0.520676
     52      -0.016417   0.003397   0.223901
     53      -0.000338   0.000153   0.006494
     54       0.000174   0.000000  -0.000013
     55       0.000077   0.000067   0.000017
     56       0.000069   0.000005   0.000007
     57       0.001217   0.000111   0.054352
     58       0.000972  -0.001283   0.793458
     59      -0.000167  -0.000414   0.164952
     60       0.000489  -0.000090   0.000107
     61      -0.000490  -0.000016   0.000867
     62      -0.000053  -0.000007   0.000151


-----------
IR SPECTRUM
-----------

 Mode   freq       eps      Int      T**2         TX        TY        TZ
       cm**-1   L/(mol*cm) km/mol    a.u.
----------------------------------------------------------------------------
  6:     20.63   0.004002   20.23  0.060547  (-0.111639 -0.031795  0.216963)
  7:     64.81   0.017646   89.18  0.084968  (-0.274437 -0.029100  0.093839)
  8:     78.47   0.009768   49.36  0.038847  ( 0.130318 -0.003707  0.147818)
  9:     91.72   0.012663   63.99  0.043086  ( 0.049837 -0.031466  0.199028)
 10:    158.87   0.001354    6.84  0.002659  (-0.024972 -0.010626  0.043844)
 11:    169.02   0.001578    7.97  0.002913  (-0.046140 -0.023051 -0.015895)
 12:    194.14   0.000095    0.48  0.000153  ( 0.005480  0.005061 -0.009864)
 13:    252.13   0.000139    0.70  0.000172  (-0.001785  0.004875 -0.012035)
 14:    276.50   0.001723    8.71  0.001945  ( 0.037254 -0.023546 -0.001617)
 15:    347.10   0.002852   14.41  0.002564  ( 0.045017  0.023130  0.001649)
 16:    397.81   0.000949    4.79  0.000744  (-0.016553  0.021632  0.001468)
 17:    428.09   0.000540    2.73  0.000394  (-0.002061  0.005746  0.018876)
 18:    476.98   0.002440   12.33  0.001596  ( 0.020499  0.031216  0.014193)
 19:    515.38   0.000572    2.89  0.000346  ( 0.006104  0.015400 -0.008463)
 20:    553.73   0.003506   17.72  0.001976  ( 0.008407  0.043625  0.001366)
 21:    579.18   0.004458   22.53  0.002402  (-0.046965 -0.013752 -0.002632)
 22:    656.18   0.000318    1.61  0.000151  (-0.008938  0.005460  0.006447)
 23:    673.64   0.009616   48.60  0.004455  ( 0.005669 -0.013923  0.065029)
 24:    679.69   0.009713   49.09  0.004460  ( 0.014032  0.065111  0.004829)
 25:    702.78   0.001741    8.80  0.000773  (-0.008219 -0.003857 -0.026284)
 26:    733.62   0.027352  138.22  0.011635  ( 0.015866 -0.051747  0.093301)
 27:    739.32   0.021238  107.33  0.008964  ( 0.026617 -0.069669 -0.058328)
 28:    773.81   0.004510   22.79  0.001819  (-0.005168  0.004559  0.042089)
 29:    861.82   0.000273    1.38  0.000099  (-0.007357  0.004240 -0.005182)
 30:    868.87   0.003585   18.12  0.001287  ( 0.028076 -0.022033 -0.003709)
 31:    881.13   0.005674   28.67  0.002009  (-0.001827 -0.001320  0.044770)
 32:    944.53   0.000045    0.23  0.000015  ( 0.001818 -0.002483 -0.002340)
 33:    992.95   0.001376    6.95  0.000432  (-0.020499 -0.003462  0.000505)
 34:   1028.77   0.025240  127.55  0.007656  ( 0.079226  0.036397  0.007405)
 35:   1031.34   0.024640  124.52  0.007456  ( 0.064112 -0.056509 -0.012323)
 36:   1092.77   0.012608   63.72  0.003601  (-0.045151 -0.038150 -0.010318)
 37:   1098.20   0.007887   39.86  0.002241  (-0.007503  0.046614  0.003471)
 38:   1148.35   0.000331    1.67  0.000090  ( 0.000236  0.000432 -0.009475)
 39:   1173.20   0.002785   14.07  0.000741  (-0.012879  0.023838  0.002559)
 40:   1182.37   0.003940   19.91  0.001040  (-0.025551  0.019549  0.002190)
 41:   1221.20   0.070029  353.90  0.017895  ( 0.093596 -0.095425 -0.005367)
 42:   1281.41   0.015012   75.86  0.003656  ( 0.059072  0.009997  0.008144)
 43:   1318.56   0.048856  246.90  0.011563  (-0.034709 -0.099801 -0.019940)
 44:   1350.64   0.009401   47.51  0.002172  ( 0.036633  0.028088  0.006414)
 45:   1399.34   0.035532  179.56  0.007924  (-0.001599  0.087002  0.018760)
 46:   1433.58   0.010981   55.49  0.002390  ( 0.025657 -0.041537 -0.002615)
 47:   1452.96   0.001616    8.17  0.000347  ( 0.013824 -0.012310 -0.002103)
 48:   1471.12   0.001981   10.01  0.000420  ( 0.001135 -0.000471 -0.020462)
 49:   1486.16   0.009334   47.17  0.001960  ( 0.036687 -0.024777 -0.000417)
 50:   1489.83   0.018155   91.75  0.003803  ( 0.049694 -0.036347 -0.003496)
 51:   1567.97   0.089651  453.06  0.017843  ( 0.087247 -0.100164 -0.014069)
 52:   1591.11   0.014458   73.07  0.002836  (-0.013914  0.047604  0.019389)
 53:   1604.47   0.019769   99.91  0.003845  (-0.061877 -0.003843 -0.001239)
 54:   2982.44   0.013780   69.64  0.001442  ( 0.036859  0.009107  0.000581)
 55:   3042.07   0.010458   52.85  0.001073  ( 0.000462  0.000300 -0.032749)
 56:   3106.75   0.005897   29.80  0.000592  ( 0.013568 -0.020205  0.000011)
 57:   3113.57   0.003393   17.15  0.000340  (-0.018163 -0.003052  0.000945)
 58:   3131.05   0.004272   21.59  0.000426  ( 0.006760  0.019496  0.000139)
 59:   3158.09   0.005723   28.92  0.000565  ( 0.014239 -0.019023  0.000940)
 60:   3160.44   0.001263    6.38  0.000125  (-0.003521  0.010593  0.000247)
 61:   3171.94   0.001908    9.64  0.000188  (-0.011411 -0.007583 -0.000185)
 62:   3201.07   0.004024   20.34  0.000392  (-0.008385 -0.017715 -0.002861)

* The epsilon (eps) is given for a Dirac delta lineshape.
** The dipole moment derivative (T) already includes vibrational overlap.

The first frequency considered to be a vibration is 6
The total number of vibrations considered is 57


--------------------------
THERMOCHEMISTRY AT 298.15K
--------------------------

Temperature         ... 298.15 K
Pressure            ... 1.00 atm
Total Mass          ... 156.11 AMU

Throughout the following assumptions are being made:
  (1) The electronic state is orbitally nondegenerate
  (2) There are no thermally accessible electronically excited states
  (3) Hindered rotations indicated by low frequency modes are not
      treated as such but are treated as vibrations and this may
      cause some error
  (4) All equations used are the standard statistical mechanics
      equations for an ideal gas
  (5) All vibrations are strictly harmonic

freq.      20.63  E(vib)   ...       0.56 
freq.      64.81  E(vib)   ...       0.50 
freq.      78.47  E(vib)   ...       0.49 
freq.      91.72  E(vib)   ...       0.47 
freq.     158.87  E(vib)   ...       0.39 
freq.     169.02  E(vib)   ...       0.38 
freq.     194.14  E(vib)   ...       0.36 
freq.     252.13  E(vib)   ...       0.30 
freq.     276.50  E(vib)   ...       0.28 
freq.     347.10  E(vib)   ...       0.23 
freq.     397.81  E(vib)   ...       0.20 
freq.     428.09  E(vib)   ...       0.18 
freq.     476.98  E(vib)   ...       0.15 
freq.     515.38  E(vib)   ...       0.13 
freq.     553.73  E(vib)   ...       0.12 
freq.     579.18  E(vib)   ...       0.11 
freq.     656.18  E(vib)   ...       0.08 
freq.     673.64  E(vib)   ...       0.08 
freq.     679.69  E(vib)   ...       0.08 
freq.     702.78  E(vib)   ...       0.07 
freq.     733.62  E(vib)   ...       0.06 
freq.     739.32  E(vib)   ...       0.06 
freq.     773.81  E(vib)   ...       0.05 
freq.     861.82  E(vib)   ...       0.04 
freq.     868.87  E(vib)   ...       0.04 
freq.     881.13  E(vib)   ...       0.04 
freq.     944.53  E(vib)   ...       0.03 
freq.     992.95  E(vib)   ...       0.02 
freq.    1028.77  E(vib)   ...       0.02 
freq.    1031.34  E(vib)   ...       0.02 
freq.    1092.77  E(vib)   ...       0.02 
freq.    1098.20  E(vib)   ...       0.02 
freq.    1148.35  E(vib)   ...       0.01 
freq.    1173.20  E(vib)   ...       0.01 
freq.    1182.37  E(vib)   ...       0.01 
freq.    1221.20  E(vib)   ...       0.01 
freq.    1281.41  E(vib)   ...       0.01 
freq.    1318.56  E(vib)   ...       0.01 
freq.    1350.64  E(vib)   ...       0.01 
freq.    1399.34  E(vib)   ...       0.00 
freq.    1433.58  E(vib)   ...       0.00 
freq.    1452.96  E(vib)   ...       0.00 
freq.    1471.12  E(vib)   ...       0.00 
freq.    1486.16  E(vib)   ...       0.00 
freq.    1489.83  E(vib)   ...       0.00 
freq.    1567.97  E(vib)   ...       0.00 
freq.    1591.11  E(vib)   ...       0.00 
freq.    1604.47  E(vib)   ...       0.00 
freq.    2982.44  E(vib)   ...       0.00 
freq.    3042.07  E(vib)   ...       0.00 
freq.    3106.75  E(vib)   ...       0.00 
freq.    3113.57  E(vib)   ...       0.00 
freq.    3131.05  E(vib)   ...       0.00 
freq.    3158.09  E(vib)   ...       0.00 
freq.    3160.44  E(vib)   ...       0.00 
freq.    3171.94  E(vib)   ...       0.00 
freq.    3201.07  E(vib)   ...       0.00 

------------
INNER ENERGY
------------

The inner energy is: U= E(el) + E(ZPE) + E(vib) + E(rot) + E(trans)
    E(el)   - is the total energy from the electronic structure calculation
              = E(kin-el) + E(nuc-el) + E(el-el) + E(nuc-nuc)
    E(ZPE)  - the the zero temperature vibrational energy from the frequency calculation
    E(vib)  - the the finite temperature correction to E(ZPE) due to population
              of excited vibrational states
    E(rot)  - is the rotational thermal energy
    E(trans)- is the translational thermal energy

Summary of contributions to the inner energy U:
Electronic energy                ...   -506.68452851 Eh
Zero point energy                ...      0.15629055 Eh      98.07 kcal/mol
Thermal vibrational correction   ...      0.00904840 Eh       5.68 kcal/mol
Thermal rotational correction    ...      0.00141627 Eh       0.89 kcal/mol
Thermal translational correction ...      0.00141627 Eh       0.89 kcal/mol
-----------------------------------------------------------------------
Total thermal energy                   -506.51635701 Eh


Summary of corrections to the electronic energy:
(perhaps to be used in another calculation)
Total thermal correction                  0.01188095 Eh       7.46 kcal/mol
Non-thermal (ZPE) correction              0.15629055 Eh      98.07 kcal/mol
-----------------------------------------------------------------------
Total correction                          0.16817150 Eh     105.53 kcal/mol


--------
ENTHALPY
--------

The enthalpy is H = U + kB*T
                kB is Boltzmann's constant
Total free energy                 ...   -506.51635701 Eh 
Thermal Enthalpy correction       ...      0.00094421 Eh       0.59 kcal/mol
-----------------------------------------------------------------------
Total Enthalpy                    ...   -506.51541280 Eh


Note: Only C1 symmetry has been detected, increase convergence thresholds 
      if your molecule has a higher symmetry. Symmetry factor of 1.0 is   
      used for the rotational entropy correction. 
 

Note: Rotational entropy computed according to Herzberg 
Infrared and Raman Spectra, Chapter V,1, Van Nostrand Reinhold, 1945 
Point Group:  C1, Symmetry Number:   1  
Rotational constants in cm-1:     0.060382     0.021246     0.015828 

Vibrational entropy computed according to the QRRHO of S. Grimme
Chem.Eur.J. 2012 18 9955


-------
ENTROPY
-------

The entropy contributions are T*S = T*(S(el)+S(vib)+S(rot)+S(trans))
     S(el)   - electronic entropy
     S(vib)  - vibrational entropy
     S(rot)  - rotational entropy
     S(trans)- translational entropy
The entropies will be listed as multiplied by the temperature to get
units of energy

Electronic entropy                ...      0.00000000 Eh      0.00 kcal/mol
Vibrational entropy               ...      0.01600712 Eh     10.04 kcal/mol
Rotational entropy                ...      0.01461157 Eh      9.17 kcal/mol
Translational entropy             ...      0.01950204 Eh     12.24 kcal/mol
-----------------------------------------------------------------------
Final entropy term                ...      0.05012073 Eh     31.45 kcal/mol

In case the symmetry of your molecule has not been determined correctly
or in case you have a reason to use a different symmetry number we print 
out the resulting rotational entropy values for sn=1,12 :
 --------------------------------------------------------
|  sn= 1 | S(rot)=       0.01461157 Eh      9.17 kcal/mol|
|  sn= 2 | S(rot)=       0.01395712 Eh      8.76 kcal/mol|
|  sn= 3 | S(rot)=       0.01357428 Eh      8.52 kcal/mol|
|  sn= 4 | S(rot)=       0.01330266 Eh      8.35 kcal/mol|
|  sn= 5 | S(rot)=       0.01309197 Eh      8.22 kcal/mol|
|  sn= 6 | S(rot)=       0.01291983 Eh      8.11 kcal/mol|
|  sn= 7 | S(rot)=       0.01277428 Eh      8.02 kcal/mol|
|  sn= 8 | S(rot)=       0.01264820 Eh      7.94 kcal/mol|
|  sn= 9 | S(rot)=       0.01253699 Eh      7.87 kcal/mol|
|  sn=10 | S(rot)=       0.01243751 Eh      7.80 kcal/mol|
|  sn=11 | S(rot)=       0.01234752 Eh      7.75 kcal/mol|
|  sn=12 | S(rot)=       0.01226537 Eh      7.70 kcal/mol|
 --------------------------------------------------------


-------------------
GIBBS FREE ENERGY
-------------------

The Gibbs free energy is G = H - T*S

Total enthalpy                    ...   -506.51541280 Eh 
Total entropy correction          ...     -0.05012073 Eh    -31.45 kcal/mol
-----------------------------------------------------------------------
Final Gibbs free energy         ...   -506.56553353 Eh

For completeness - the Gibbs free energy minus the electronic energy
G-E(el)                           ...      0.11899498 Eh     74.67 kcal/mol



Timings for individual modules:

Sum of individual times         ...     8990.342 sec (= 149.839 min)
GTO integral calculation        ...       14.054 sec (=   0.234 min)   0.2 %
SCF iterations                  ...      812.729 sec (=  13.545 min)   9.0 %
SCF Gradient evaluation         ...      238.630 sec (=   3.977 min)   2.7 %
Geometry relaxation             ...        1.054 sec (=   0.018 min)   0.0 %
Numerical frequency calculation ...     7923.875 sec (= 132.065 min)  88.1 %
                             ****ORCA TERMINATED NORMALLY****
TOTAL RUN TIME: 0 days 2 hours 29 minutes 12 seconds 122 msec
‘Keton-CLi.cpcm’ -> ‘/home/rothe/Calc/Li_Path/THF/Keton-CLi/Keton-CLi.cpcm’
‘Keton-CLi.densities’ -> ‘/home/rothe/Calc/Li_Path/THF/Keton-CLi/Keton-CLi.densities’
‘Keton-CLi.engrad’ -> ‘/home/rothe/Calc/Li_Path/THF/Keton-CLi/Keton-CLi.engrad’
‘Keton-CLi.gbw’ -> ‘/home/rothe/Calc/Li_Path/THF/Keton-CLi/Keton-CLi.gbw’
‘Keton-CLi.hess’ -> ‘/home/rothe/Calc/Li_Path/THF/Keton-CLi/Keton-CLi.hess’
‘Keton-CLi.job’ -> ‘/home/rothe/Calc/Li_Path/THF/Keton-CLi/Keton-CLi.job’
‘Keton-CLi.opt’ -> ‘/home/rothe/Calc/Li_Path/THF/Keton-CLi/Keton-CLi.opt’
‘Keton-CLi_property.txt’ -> ‘/home/rothe/Calc/Li_Path/THF/Keton-CLi/Keton-CLi_property.txt’
‘Keton-CLi_trj.xyz’ -> ‘/home/rothe/Calc/Li_Path/THF/Keton-CLi/Keton-CLi_trj.xyz’
‘Keton-CLi.xyz’ -> ‘/home/rothe/Calc/Li_Path/THF/Keton-CLi/Keton-CLi.xyz’
