! Job execution by suborca V 5.02 !
Job started from clu.thch.uni-bonn.de, running /software/cluster/orca_5_0_2_linux_x86-64_openmpi411/orca from /software/cluster/orca_5_0_2_linux_x86-64_openmpi411 on boar228 in /tmp1/rothe/Li-Aldol_sp__Oxvec7
Going to copy the following really necessary files:  

                                 *****************
                                 * O   R   C   A *
                                 *****************

                                            #,                                       
                                            ###                                      
                                            ####                                     
                                            #####                                    
                                            ######                                   
                                           ########,                                 
                                     ,,################,,,,,                         
                               ,,#################################,,                 
                          ,,##########################################,,             
                       ,#########################################, ''#####,          
                    ,#############################################,,   '####,        
                  ,##################################################,,,,####,       
                ,###########''''           ''''###############################       
              ,#####''   ,,,,##########,,,,          '''####'''          '####       
            ,##' ,,,,###########################,,,                        '##       
           ' ,,###''''                  '''############,,,                           
         ,,##''                                '''############,,,,        ,,,,,,###''
      ,#''                                            '''#######################'''  
     '                                                          ''''####''''         
             ,#######,   #######,   ,#######,      ##                                
            ,#'     '#,  ##    ##  ,#'     '#,    #''#        ######   ,####,        
            ##       ##  ##   ,#'  ##            #'  '#       #        #'  '#        
            ##       ##  #######   ##           ,######,      #####,   #    #        
            '#,     ,#'  ##    ##  '#,     ,#' ,#      #,         ##   #,  ,#        
             '#######'   ##     ##  '#######'  #'      '#     #####' # '####'        



                  #######################################################
                  #                        -***-                        #
                  #          Department of theory and spectroscopy      #
                  #    Directorship and core code : Frank Neese         #
                  #        Max Planck Institute fuer Kohlenforschung    #
                  #                Kaiser Wilhelm Platz 1               #
                  #                 D-45470 Muelheim/Ruhr               #
                  #                      Germany                        #
                  #                                                     #
                  #                  All rights reserved                #
                  #                        -***-                        #
                  #######################################################


                         Program Version 5.0.2 -  RELEASE  -


 With contributions from (in alphabetic order):
   Daniel Aravena         : Magnetic Suceptibility
   Michael Atanasov       : Ab Initio Ligand Field Theory (pilot matlab implementation)
   Alexander A. Auer      : GIAO ZORA, VPT2 properties, NMR spectrum
   Ute Becker             : Parallelization
   Giovanni Bistoni       : ED, misc. LED, open-shell LED, HFLD
   Martin Brehm           : Molecular dynamics
   Dmytro Bykov           : SCF Hessian
   Vijay G. Chilkuri      : MRCI spin determinant printing, contributions to CSF-ICE
   Dipayan Datta          : RHF DLPNO-CCSD density
   Achintya Kumar Dutta   : EOM-CC, STEOM-CC
   Dmitry Ganyushin       : Spin-Orbit,Spin-Spin,Magnetic field MRCI
   Miquel Garcia          : C-PCM and meta-GGA Hessian, CC/C-PCM, Gaussian charge scheme
   Yang Guo               : DLPNO-NEVPT2, F12-NEVPT2, CIM, IAO-localization
   Andreas Hansen         : Spin unrestricted coupled pair/coupled cluster methods
   Benjamin Helmich-Paris : MC-RPA, TRAH-SCF, COSX integrals
   Lee Huntington         : MR-EOM, pCC
   Robert Izsak           : Overlap fitted RIJCOSX, COSX-SCS-MP3, EOM
   Marcus Kettner         : VPT2
   Christian Kollmar      : KDIIS, OOCD, Brueckner-CCSD(T), CCSD density, CASPT2, CASPT2-K
   Simone Kossmann        : Meta GGA functionals, TD-DFT gradient, OOMP2, MP2 Hessian
   Martin Krupicka        : Initial AUTO-CI
   Lucas Lang             : DCDCAS
   Marvin Lechner         : AUTO-CI (C++ implementation), FIC-MRCC
   Dagmar Lenk            : GEPOL surface, SMD
   Dimitrios Liakos       : Extrapolation schemes; Compound Job, initial MDCI parallelization
   Dimitrios Manganas     : Further ROCIS development; embedding schemes
   Dimitrios Pantazis     : SARC Basis sets
   Anastasios Papadopoulos: AUTO-CI, single reference methods and gradients
   Taras Petrenko         : DFT Hessian,TD-DFT gradient, ASA, ECA, R-Raman, ABS, FL, XAS/XES, NRVS
   Peter Pinski           : DLPNO-MP2, DLPNO-MP2 Gradient
   Christoph Reimann      : Effective Core Potentials
   Marius Retegan         : Local ZFS, SOC
   Christoph Riplinger    : Optimizer, TS searches, QM/MM, DLPNO-CCSD(T), (RO)-DLPNO pert. Triples
   Tobias Risthaus        : Range-separated hybrids, TD-DFT gradient, RPA, STAB
   Michael Roemelt        : Original ROCIS implementation
   Masaaki Saitow         : Open-shell DLPNO-CCSD energy and density
   Barbara Sandhoefer     : DKH picture change effects
   Avijit Sen             : IP-ROCIS
   Kantharuban Sivalingam : CASSCF convergence, NEVPT2, FIC-MRCI
   Bernardo de Souza      : ESD, SOC TD-DFT
   Georgi Stoychev        : AutoAux, RI-MP2 NMR, DLPNO-MP2 response
   Willem Van den Heuvel  : Paramagnetic NMR
   Boris Wezisla          : Elementary symmetry handling
   Frank Wennmohs         : Technical directorship


 We gratefully acknowledge several colleagues who have allowed us to
 interface, adapt or use parts of their codes:
   Stefan Grimme, W. Hujo, H. Kruse, P. Pracht,  : VdW corrections, initial TS optimization,
                  C. Bannwarth, S. Ehlert          DFT functionals, gCP, sTDA/sTD-DF
   Ed Valeev, F. Pavosevic, A. Kumar             : LibInt (2-el integral package), F12 methods
   Garnet Chan, S. Sharma, J. Yang, R. Olivares  : DMRG
   Ulf Ekstrom                                   : XCFun DFT Library
   Mihaly Kallay                                 : mrcc  (arbitrary order and MRCC methods)
   Jiri Pittner, Ondrej Demel                    : Mk-CCSD
   Frank Weinhold                                : gennbo (NPA and NBO analysis)
   Christopher J. Cramer and Donald G. Truhlar   : smd solvation model
   Lars Goerigk                                  : TD-DFT with DH, B97 family of functionals
   V. Asgeirsson, H. Jonsson                     : NEB implementation
   FAccTs GmbH                                   : IRC, NEB, NEB-TS, DLPNO-Multilevel, CI-OPT
                                                   MM, QMMM, 2- and 3-layer-ONIOM, Crystal-QMMM,
                                                   LR-CPCM, SF, NACMEs, symmetry and pop. for TD-DFT,
                                                   nearIR, NL-DFT gradient (VV10), updates on ESD,
                                                   ML-optimized integration grids
   S Lehtola, MJT Oliveira, MAL Marques          : LibXC Library
   Liviu Ungur et al                             : ANISO software


 Your calculation uses the libint2 library for the computation of 2-el integrals
 For citations please refer to: http://libint.valeyev.net

 Your ORCA version has been built with support for libXC version: 5.1.0
 For citations please refer to: https://tddft.org/programs/libxc/

 This ORCA versions uses:
   CBLAS   interface :  Fast vector & matrix operations
   LAPACKE interface :  Fast linear algebra routines
   SCALAPACK package :  Parallel linear algebra routines
   Shared memory     :  Shared parallel matrices
   BLAS/LAPACK       :  OpenBLAS 0.3.15  USE64BITINT DYNAMIC_ARCH NO_AFFINITY Barcelona SINGLE_THREADED
        Core in use  :  Barcelona
   Copyright (c) 2011-2014, The OpenBLAS Project


Your calculation utilizes the atom-pairwise dispersion correction
with the Becke-Johnson damping scheme (D3BJ)
Cite in your paper:
S.Grimme, S.Ehrlich, L.Goerigk, J Comput Chem, (2011), 32, 1456–1465 
S.Grimme, J.Antony, S.Ehrlich and H.Krieg, J.Chem.Phys., 132, (2010), 154104 
   

================================================================================

----- Orbital basis set information -----
Your calculation utilizes the basis: def2-QZVP
   F. Weigend and R. Ahlrichs, Phys. Chem. Chem. Phys. 7, 3297 (2005).

----- AuxJK basis set information -----
Your calculation utilizes the auxiliary basis: def2/JK
   H-Ba, Hf-Rn: F. Weigend, J. Comput. Chem. 29, 167 (2008).

================================================================================
                                        WARNINGS
                       Please study these warnings very carefully!
================================================================================


INFO   : the flag for use of the SHARK integral package has been found!

================================================================================
                                       INPUT FILE
================================================================================
NAME = Li-Aldol_sp.inp
|  1> ! PW6B95 D3BJ def2-QZVP RIJK def2/JK tightSCF CPCM(THF)
|  2> ! sp Pal4
|  3> 
|  4> * xyz 0 1  
|  5> C   3.12926546088082     -1.71706853041474     -1.17900329917865
|  6>   C   3.11367979317611     -2.43009612132795     -2.38760531275860
|  7>   C   3.96988264858153     -3.52223461280417     -2.55175801623749
|  8>   C   4.83049464158970     -3.91966014348605     -1.53484663937308
|  9>   C   4.85178452674346     -3.20079487878844     -0.32413795918178
| 10>   C   4.00021736412788     -2.10150046357587     -0.15709507287045
| 11>   H   4.01713494666655     -1.54449215912897      0.77371639308716
| 12>   H   2.44707242586543     -2.14563716413254     -3.19365501659456
| 13>   H   3.95506907962075     -4.06728040595774     -3.49103572397449
| 14>   H   5.48476174053602     -4.76950544456311     -1.68790354633009
| 15>   C   5.76969208070592     -3.55184820138845      0.78678081243419
| 16>   O   2.33477112014698     -0.63805292748023     -0.91398213420864
| 17>   C   1.43446828293377     -0.20853129988067     -1.95213707020546
| 18>   H   1.99044846402550      0.08367720265159     -2.84987126369524
| 19>   H   0.91057402503305      0.65330150906131     -1.53956098057724
| 20>   H   0.71926421964780     -1.00168433055084     -2.19669259251701
| 21>   C   6.67035816579865     -4.73176024707481      0.70352994753873
| 22>   O   5.85066291870078     -2.79321635478204      1.78171492744812
| 23>   C   8.18106111261305     -4.22474647030526      0.41761914447059
| 24>   O   8.65236601949984     -3.44163055241772      1.42183471461372
| 25>   Li  7.57292153172249     -2.70845031863755      2.58807503816377
| 26>   C   8.98150237467747     -5.50606557627842      0.18098535189537
| 27>   C   8.89506567770288     -6.18923890861860     -1.03849588447505
| 28>   C   9.80309579374050     -6.02223534651537      1.18733345723098
| 29>   C   10.50741647417754     -7.20671169848472      0.98972216364738
| 30>   C   10.43679709743294     -7.87547439343579     -0.24048225478385
| 31>   C   9.62287228527718     -7.35413820523435     -1.25833291010151
| 32>   C   11.15924590236128     -9.16991489526802     -0.38404493325393
| 33>   O   11.83762333609010     -9.44330928380064     -1.52852819949683
| 34>   O   11.15486972022078    -10.02501892526530      0.48859802919551
| 35>   C   12.20544218060004     -8.39601359881328     -2.46902192739469
| 36>   H   11.48442053028688     -8.37030257786323     -3.28850576679978
| 37>   H   13.18942786182155     -8.68041787221541     -2.84379190039059
| 38>   H   12.25346053445675     -7.42647106090101     -1.97126103074082
| 39>   H   9.53918571722684     -7.87092742839576     -2.20927757267524
| 40>   H   8.25492262334425     -5.79992524483210     -1.82775738701802
| 41>   H   11.12940544413752     -7.61682940776498      1.78023419512565
| 42>   H   9.87804594582639     -5.47622534586346      2.12282118440167
| 43>   H   6.36514176794343     -5.45046348173156     -0.05639891020263
| 44>   H   6.71346194178723     -5.22794369625348      1.67821597910151
| 45>   H   8.13316933105585     -3.69709813376802     -0.55850974409486
| 46> *
| 47> 
| 48>                          ****END OF INPUT****
================================================================================

                       ****************************
                       * Single Point Calculation *
                       ****************************

---------------------------------
CARTESIAN COORDINATES (ANGSTROEM)
---------------------------------
  C      3.129265   -1.717069   -1.179003
  C      3.113680   -2.430096   -2.387605
  C      3.969883   -3.522235   -2.551758
  C      4.830495   -3.919660   -1.534847
  C      4.851785   -3.200795   -0.324138
  C      4.000217   -2.101500   -0.157095
  H      4.017135   -1.544492    0.773716
  H      2.447072   -2.145637   -3.193655
  H      3.955069   -4.067280   -3.491036
  H      5.484762   -4.769505   -1.687904
  C      5.769692   -3.551848    0.786781
  O      2.334771   -0.638053   -0.913982
  C      1.434468   -0.208531   -1.952137
  H      1.990448    0.083677   -2.849871
  H      0.910574    0.653302   -1.539561
  H      0.719264   -1.001684   -2.196693
  C      6.670358   -4.731760    0.703530
  O      5.850663   -2.793216    1.781715
  C      8.181061   -4.224746    0.417619
  O      8.652366   -3.441631    1.421835
  Li     7.572922   -2.708450    2.588075
  C      8.981502   -5.506066    0.180985
  C      8.895066   -6.189239   -1.038496
  C      9.803096   -6.022235    1.187333
  C     10.507416   -7.206712    0.989722
  C     10.436797   -7.875474   -0.240482
  C      9.622872   -7.354138   -1.258333
  C     11.159246   -9.169915   -0.384045
  O     11.837623   -9.443309   -1.528528
  O     11.154870  -10.025019    0.488598
  C     12.205442   -8.396014   -2.469022
  H     11.484421   -8.370303   -3.288506
  H     13.189428   -8.680418   -2.843792
  H     12.253461   -7.426471   -1.971261
  H      9.539186   -7.870927   -2.209278
  H      8.254923   -5.799925   -1.827757
  H     11.129405   -7.616829    1.780234
  H      9.878046   -5.476225    2.122821
  H      6.365142   -5.450463   -0.056399
  H      6.713462   -5.227944    1.678216
  H      8.133169   -3.697098   -0.558510

----------------------------
CARTESIAN COORDINATES (A.U.)
----------------------------
  NO LB      ZA    FRAG     MASS         X           Y           Z
   0 C     6.0000    0    12.011    5.913455   -3.244789   -2.227993
   1 C     6.0000    0    12.011    5.884002   -4.592216   -4.511920
   2 C     6.0000    0    12.011    7.501991   -6.656059   -4.822124
   3 C     6.0000    0    12.011    9.128312   -7.407084   -2.900440
   4 C     6.0000    0    12.011    9.168544   -6.048626   -0.612532
   5 C     6.0000    0    12.011    7.559315   -3.971260   -0.296867
   6 H     1.0000    0     1.008    7.591285   -2.918667    1.462112
   7 H     1.0000    0     1.008    4.624297   -4.054667   -6.035133
   8 H     1.0000    0     1.008    7.473997   -7.686046   -6.597101
   9 H     1.0000    0     1.008   10.364698   -9.013059   -3.189675
  10 C     6.0000    0    12.011   10.903138   -6.712020    1.486800
  11 O     8.0000    0    15.999    4.412078   -1.205745   -1.727176
  12 C     6.0000    0    12.011    2.710752   -0.394067   -3.689004
  13 H     1.0000    0     1.008    3.761402    0.158127   -5.385476
  14 H     1.0000    0     1.008    1.720736    1.234561   -2.909349
  15 H     1.0000    0     1.008    1.359212   -1.892909   -4.151147
  16 C     6.0000    0    12.011   12.605150   -8.941731    1.329479
  17 O     8.0000    0    15.999   11.056151   -5.278414    3.366953
  18 C     6.0000    0    12.011   15.459965   -7.983614    0.789186
  19 O     8.0000    0    15.999   16.350602   -6.503739    2.686878
  20 Li    3.0000    0     6.941   14.310748   -5.118229    4.890753
  21 C     6.0000    0    12.011   16.972580  -10.404956    0.342013
  22 C     6.0000    0    12.011   16.809238  -11.695967   -1.962473
  23 C     6.0000    0    12.011   18.525166  -11.380376    2.243735
  24 C     6.0000    0    12.011   19.856140  -13.618711    1.870304
  25 C     6.0000    0    12.011   19.722688  -14.882490   -0.454446
  26 C     6.0000    0    12.011   18.184593  -13.897307   -2.377905
  27 C     6.0000    0    12.011   21.087919  -17.328628   -0.725740
  28 O     8.0000    0    15.999   22.369866  -17.845268   -2.888500
  29 O     8.0000    0    15.999   21.079649  -18.944540    0.923316
  30 C     6.0000    0    12.011   23.064943  -15.866166   -4.665775
  31 H     1.0000    0     1.008   21.702410  -15.817580   -6.214375
  32 H     1.0000    0     1.008   24.924407  -16.403613   -5.373988
  33 H     1.0000    0     1.008   23.155685  -14.033996   -3.725143
  34 H     1.0000    0     1.008   18.026449  -14.873897   -4.174930
  35 H     1.0000    0     1.008   15.599543  -10.960270   -3.453961
  36 H     1.0000    0     1.008   21.031528  -14.393722    3.364155
  37 H     1.0000    0     1.008   18.666802  -10.348566    4.011551
  38 H     1.0000    0     1.008   12.028375  -10.299883   -0.106578
  39 H     1.0000    0     1.008   12.686604   -9.879382    3.171369
  40 H     1.0000    0     1.008   15.369463   -6.986503   -1.055430

--------------------------------
INTERNAL COORDINATES (ANGSTROEM)
--------------------------------
 C      0   0   0     0.000000000000     0.00000000     0.00000000
 C      1   0   0     1.403342469132     0.00000000     0.00000000
 C      2   1   0     1.397424747250   119.43626713     0.00000000
 C      3   2   1     1.390218976760   121.11689507     0.42739640
 C      4   3   2     1.408203123235   119.49285392   359.25478756
 C      1   2   3     1.396653697951   119.81628561     0.21092189
 H      6   1   2     1.084875311259   119.74746050   179.49852559
 H      2   1   3     1.083973433962   120.92475988   179.96488719
 H      3   2   1     1.086064901703   119.04206765   180.21840919
 H      4   3   2     1.083387691131   119.65367024   180.03991122
 C      5   4   3     1.483217189106   122.17335133   181.54852348
 O      1   2   3     1.365918060030   124.19495139   180.07957585
 C     12   1   2     1.439722090684   117.35441451   359.55277147
 H     13  12   1     1.095639745938   110.67551565   299.22293885
 H     13  12   1     1.089697211964   105.28263080   180.31157183
 H     13  12   1     1.095634969182   110.68197192    61.39988475
 C     11   5   4     1.486715352345   121.38677789   356.78805844
 O     11   5   4     1.253783254199   119.41392548   172.25325396
 C     17  11   5     1.618959959560   109.06519260   104.42271410
 O     19  17  11     1.357883561806   111.95549145    62.04172868
 Li    20  19  17     1.750105753854   121.35555814   342.79508934
 C     19  17  11     1.529209082217   104.67614629   186.73797344
 C     22  19  17     1.400475487277   120.74223645    77.06631678
 C     22  19  17     1.397921130489   120.37278820   257.71709962
 C     24  22  19     1.392157344777   120.61818295   178.34532287
 C     25  24  22     1.402010538355   120.32551858     2.14814002
 C     23  22  19     1.391050375479   120.91919419   179.91592596
 C     26  25  24     1.489334996290   118.34176423   182.66737576
 O     28  26  25     1.358227661691   119.89744855   221.25634678
 O     28  26  25     1.221772398199   122.52819721    42.40247635
 C     29  28  26     1.454870236958   121.74155030    17.55145208
 H     31  29  28     1.091827385563   109.58419906   261.27555882
 H     31  29  28     1.090672335873   105.21884444   142.90299436
 H     31  29  28     1.090909897914   110.85086820    23.53269119
 H     27  23  22     1.085527657006   119.78732799   179.77325048
 H     23  22  19     1.088247204568   119.55910396     0.33635306
 H     25  24  22     1.086267041813   120.50497218   181.25478259
 H     24  22  19     1.085763203372   118.36838533   358.26084920
 H     17  11   5     1.089579394929   113.13186520   341.44339101
 H     17  11   5     1.094563296875   109.49724446   219.06623322
 H     19  17  11     1.110645756703   105.29315367   298.86468164

---------------------------
INTERNAL COORDINATES (A.U.)
---------------------------
 C      0   0   0     0.000000000000     0.00000000     0.00000000
 C      1   0   0     2.651932938761     0.00000000     0.00000000
 C      2   1   0     2.640750065067   119.43626713     0.00000000
 C      3   2   1     2.627133132257   121.11689507     0.42739640
 C      4   3   2     2.661118243847   119.49285392   359.25478756
 C      1   2   3     2.639292993056   119.81628561     0.21092189
 H      6   1   2     2.050117227733   119.74746050   179.49852559
 H      2   1   3     2.048412926635   120.92475988   179.96488719
 H      3   2   1     2.052365227883   119.04206765   180.21840919
 H      4   3   2     2.047306033098   119.65367024   180.03991122
 C      5   4   3     2.802874284534   122.17335133   181.54852348
 O      1   2   3     2.581211054834   124.19495139   180.07957585
 C     12   1   2     2.720680460350   117.35441451   359.55277147
 H     13  12   1     2.070459061262   110.67551565   299.22293885
 H     13  12   1     2.059229299510   105.28263080   180.31157183
 H     13  12   1     2.070450034502   110.68197192    61.39988475
 C     11   5   4     2.809484855028   121.38677789   356.78805844
 O     11   5   4     2.369306981733   119.41392548   172.25325396
 C     17  11   5     3.059390945353   109.06519260   104.42271410
 O     19  17  11     2.566028053566   111.95549145    62.04172868
 Li    20  19  17     3.307220580184   121.35555814   342.79508934
 C     19  17  11     2.889786366896   104.67614629   186.73797344
 C     22  19  17     2.646515128224   120.74223645    77.06631678
 C     22  19  17     2.641688093445   120.37278820   257.71709962
 C     24  22  19     2.630796116956   120.61818295   178.34532287
 C     25  24  22     2.649415954362   120.32551858     2.14814002
 C     23  22  19     2.628704248144   120.91919419   179.91592596
 C     26  25  24     2.814435264654   118.34176423   182.66737576
 O     28  26  25     2.566678308113   119.89744855   221.25634678
 O     28  26  25     2.308815230580   122.52819721    42.40247635
 C     29  28  26     2.749306308243   121.74155030    17.55145208
 H     31  29  28     2.063254744229   109.58419906   261.27555882
 H     31  29  28     2.061072016643   105.21884444   142.90299436
 H     31  29  28     2.061520943841   110.85086820    23.53269119
 H     27  23  22     2.051349982539   119.78732799   179.77325048
 H     23  22  19     2.056489182640   119.55910396     0.33635306
 H     25  24  22     2.052747217331   120.50497218   181.25478259
 H     24  22  19     2.051795100662   118.36838533   358.26084920
 H     17  11   5     2.059006657579   113.13186520   341.44339101
 H     17  11   5     2.068424867337   109.49724446   219.06623322
 H     19  17  11     2.098816311971   105.29315367   298.86468164

---------------------
BASIS SET INFORMATION
---------------------
There are 4 groups of distinct atoms

 Group   1 Type C   : 15s8p3d2f1g contracted to 7s4p3d2f1g pattern {8211111/5111/111/11/1}
 Group   2 Type H   : 7s3p2d1f contracted to 4s3p2d1f pattern {4111/111/11/1}
 Group   3 Type O   : 15s8p3d2f1g contracted to 7s4p3d2f1g pattern {8211111/5111/111/11/1}
 Group   4 Type Li  : 15s6p2d1f contracted to 6s4p2d1f pattern {921111/3111/11/1}

Atom   0C    basis set group =>   1
Atom   1C    basis set group =>   1
Atom   2C    basis set group =>   1
Atom   3C    basis set group =>   1
Atom   4C    basis set group =>   1
Atom   5C    basis set group =>   1
Atom   6H    basis set group =>   2
Atom   7H    basis set group =>   2
Atom   8H    basis set group =>   2
Atom   9H    basis set group =>   2
Atom  10C    basis set group =>   1
Atom  11O    basis set group =>   3
Atom  12C    basis set group =>   1
Atom  13H    basis set group =>   2
Atom  14H    basis set group =>   2
Atom  15H    basis set group =>   2
Atom  16C    basis set group =>   1
Atom  17O    basis set group =>   3
Atom  18C    basis set group =>   1
Atom  19O    basis set group =>   3
Atom  20Li   basis set group =>   4
Atom  21C    basis set group =>   1
Atom  22C    basis set group =>   1
Atom  23C    basis set group =>   1
Atom  24C    basis set group =>   1
Atom  25C    basis set group =>   1
Atom  26C    basis set group =>   1
Atom  27C    basis set group =>   1
Atom  28O    basis set group =>   3
Atom  29O    basis set group =>   3
Atom  30C    basis set group =>   1
Atom  31H    basis set group =>   2
Atom  32H    basis set group =>   2
Atom  33H    basis set group =>   2
Atom  34H    basis set group =>   2
Atom  35H    basis set group =>   2
Atom  36H    basis set group =>   2
Atom  37H    basis set group =>   2
Atom  38H    basis set group =>   2
Atom  39H    basis set group =>   2
Atom  40H    basis set group =>   2
----------------------------------
AUXILIARY/JK BASIS SET INFORMATION
----------------------------------
There are 4 groups of distinct atoms

 Group   1 Type C   : 14s10p6d2f1g contracted to 10s8p5d1f1g pattern {5111111111/31111111/21111/2/1}
 Group   2 Type H   : 4s2p2d contracted to 2s2p2d pattern {31/11/11}
 Group   3 Type O   : 14s10p6d2f1g contracted to 10s8p4d2f1g pattern {5111111111/31111111/3111/11/1}
 Group   4 Type Li  : 10s7p4d2f contracted to 7s5p3d2f pattern {4111111/31111/211/11}

Atom   0C    basis set group =>   1
Atom   1C    basis set group =>   1
Atom   2C    basis set group =>   1
Atom   3C    basis set group =>   1
Atom   4C    basis set group =>   1
Atom   5C    basis set group =>   1
Atom   6H    basis set group =>   2
Atom   7H    basis set group =>   2
Atom   8H    basis set group =>   2
Atom   9H    basis set group =>   2
Atom  10C    basis set group =>   1
Atom  11O    basis set group =>   3
Atom  12C    basis set group =>   1
Atom  13H    basis set group =>   2
Atom  14H    basis set group =>   2
Atom  15H    basis set group =>   2
Atom  16C    basis set group =>   1
Atom  17O    basis set group =>   3
Atom  18C    basis set group =>   1
Atom  19O    basis set group =>   3
Atom  20Li   basis set group =>   4
Atom  21C    basis set group =>   1
Atom  22C    basis set group =>   1
Atom  23C    basis set group =>   1
Atom  24C    basis set group =>   1
Atom  25C    basis set group =>   1
Atom  26C    basis set group =>   1
Atom  27C    basis set group =>   1
Atom  28O    basis set group =>   3
Atom  29O    basis set group =>   3
Atom  30C    basis set group =>   1
Atom  31H    basis set group =>   2
Atom  32H    basis set group =>   2
Atom  33H    basis set group =>   2
Atom  34H    basis set group =>   2
Atom  35H    basis set group =>   2
Atom  36H    basis set group =>   2
Atom  37H    basis set group =>   2
Atom  38H    basis set group =>   2
Atom  39H    basis set group =>   2
Atom  40H    basis set group =>   2


           ************************************************************
           *        Program running with 4 parallel MPI-processes     *
           *              working on a common directory               *
           ************************************************************
------------------------------------------------------------------------------
                           ORCA GTO INTEGRAL CALCULATION
                           -- RI-GTO INTEGRALS CHOSEN --
------------------------------------------------------------------------------
------------------------------------------------------------------------------
                   ___                                                        
                  /   \      - P O W E R E D   B Y -                         
                 /     \                                                     
                 |  |  |   _    _      __       _____    __    __             
                 |  |  |  | |  | |    /  \     |  _  \  |  |  /  |          
                  \  \/   | |  | |   /    \    | | | |  |  | /  /          
                 / \  \   | |__| |  /  /\  \   | |_| |  |  |/  /          
                |  |  |   |  __  | /  /__\  \  |    /   |      \           
                |  |  |   | |  | | |   __   |  |    \   |  |\   \          
                \     /   | |  | | |  |  |  |  | |\  \  |  | \   \       
                 \___/    |_|  |_| |__|  |__|  |_| \__\ |__|  \__/        
                                                                              
                      - O R C A' S   B I G   F R I E N D -                    
                                      &                                       
                       - I N T E G R A L  F E E D E R -                       
                                                                              
 v1 FN, 2020, v2 2021                                                         
------------------------------------------------------------------------------


Reading SHARK input file Li-Aldol_sp.SHARKINP.tmp ... ok
----------------------
SHARK INTEGRAL PACKAGE
----------------------

Number of atoms                             ...     41
Number of basis functions                   ...   1856
Number of shells                            ...    574
Maximum angular momentum                    ...      4
Integral batch strategy                     ... SHARK/LIBINT Hybrid
RI-J (if used) integral strategy            ... SPLIT-RIJ (Revised 2003 algorithm where possible)
Printlevel                                  ...      1
Contraction scheme used                     ... SEGMENTED contraction
Coulomb Range Separation                    ... NOT USED
Exchange Range Separation                   ... NOT USED
Finite Nucleus Model                        ... NOT USED
Auxiliary Coulomb fitting basis             ... NOT available
Auxiliary J/K fitting basis                 ... AVAILABLE
   # of basis functions in Aux-JK           ...   2092
   # of shells in Aux-JK                    ...    694
   Maximum angular momentum in Aux-JK       ...      4
Auxiliary Correlation fitting basis         ... NOT available
Auxiliary 'external' fitting basis          ... NOT available
Integral threshold                          ...     2.500000e-11
Primitive cut-off                           ...     2.500000e-12
Primitive pair pre-selection threshold      ...     2.500000e-12

Calculating pre-screening integrals         ... done (  2.8 sec) Dimension = 574
Organizing shell pair data                  ... done (  4.0 sec)
Shell pair information
Total number of shell pairs                 ...    165025
Shell pairs after pre-screening             ...     87411
Total number of primitive shell pairs       ...    417367
Primitive shell pairs kept                  ...    153985
          la=0 lb=0:  13807 shell pairs
          la=1 lb=0:  19946 shell pairs
          la=1 lb=1:   7040 shell pairs
          la=2 lb=0:  12155 shell pairs
          la=2 lb=1:   8885 shell pairs
          la=2 lb=2:   2762 shell pairs
          la=3 lb=0:   7111 shell pairs
          la=3 lb=1:   5252 shell pairs
          la=3 lb=2:   3154 shell pairs
          la=3 lb=3:    945 shell pairs
          la=4 lb=0:   2559 shell pairs
          la=4 lb=1:   1888 shell pairs
          la=4 lb=2:   1133 shell pairs
          la=4 lb=3:    648 shell pairs
          la=4 lb=4:    126 shell pairs

Calculating one electron integrals          ... done (  0.8 sec)
Calculating RI/JK V-Matrix + Cholesky decomp... done (  0.8 sec)
Calculating Nuclear repulsion               ... done (  0.0 sec) ENN=   1798.107877747959 Eh

SHARK setup successfully completed in  15.6 seconds

Maximum memory used throughout the entire GTOINT-calculation: 162.5 MB


           ************************************************************
           *        Program running with 4 parallel MPI-processes     *
           *              working on a common directory               *
           ************************************************************
-------------------------------------------------------------------------------
                                 ORCA SCF
-------------------------------------------------------------------------------

------------
SCF SETTINGS
------------
Hamiltonian:
 Density Functional     Method          .... DFT(GTOs)
 Exchange Functional    Exchange        .... PW6
 Correlation Functional Correlation     .... B95
 Gradients option       PostSCFGGA      .... off
 Hybrid DFT is turned on
   Fraction HF Exchange ScalHFX         ....  0.280000
   Scaling of DF-GGA-X  ScalDFX         ....  0.720000
   Scaling of DF-GGA-C  ScalDFC         ....  1.000000
   Scaling of DF-LDA-C  ScalLDAC        ....  1.000000
   Perturbative correction              ....  0.000000
   Density functional embedding theory  .... OFF
   NL short-range parameter             ....  9.000000
 RI-approximation to the Coulomb term is turned on
   Number of AuxJK basis functions      .... 2092
   RI-JK (J+K treated both via RI)      .... on


General Settings:
 Integral files         IntName         .... Li-Aldol_sp
 Hartree-Fock type      HFTyp           .... RHF
 Total Charge           Charge          ....    0
 Multiplicity           Mult            ....    1
 Number of Electrons    NEL             ....  168
 Basis Dimension        Dim             .... 1856
 Nuclear Repulsion      ENuc            ....   1798.1078777480 Eh

Convergence Acceleration:
 DIIS                   CNVDIIS         .... on
   Start iteration      DIISMaxIt       ....    12
   Startup error        DIISStart       ....  0.200000
   # of expansion vecs  DIISMaxEq       ....     5
   Bias factor          DIISBfac        ....   1.050
   Max. coefficient     DIISMaxC        ....  10.000
 Trust-Rad. Augm. Hess. CNVTRAH         .... auto
   Auto Start mean grad. ratio tolernc. ....  1.125000
   Auto Start start iteration           ....    20
   Auto Start num. interpolation iter.  ....    10
   Max. Number of Micro iterations      ....    16
   Max. Number of Macro iterations      .... Maxiter - #DIIS iter
   Number of Davidson start vectors     ....     2
   Converg. threshold I  (grad. norm)   ....   1.000e-05
   Converg. threshold II (energy diff.) ....   1.000e-08
   Grad. Scal. Fac. for Micro threshold ....   0.100
   Minimum threshold for Micro iter.    ....   0.010
   NR start threshold (gradient norm)   ....   0.001
   Initial trust radius                 ....   0.400
   Minimum AH scaling param. (alpha)    ....   1.000
   Maximum AH scaling param. (alpha)    .... 1000.000
   Orbital update algorithm             .... Taylor
   White noise on init. David. guess    .... on
   Maximum white noise                  ....   0.010
   Quad. conv. algorithm                .... NR
 SOSCF                  CNVSOSCF        .... on
   Start iteration      SOSCFMaxIt      ....   150
   Startup grad/error   SOSCFStart      ....  0.003300
 Level Shifting         CNVShift        .... on
   Level shift para.    LevelShift      ....    0.2500
   Turn off err/grad.   ShiftErr        ....    0.0010
 Zerner damping         CNVZerner       .... off
 Static damping         CNVDamp         .... on
   Fraction old density DampFac         ....    0.7000
   Max. Damping (<1)    DampMax         ....    0.9800
   Min. Damping (>=0)   DampMin         ....    0.0000
   Turn off err/grad.   DampErr         ....    0.1000
 Fernandez-Rico         CNVRico         .... off

SCF Procedure:
 Maximum # iterations   MaxIter         ....   125
 SCF integral mode      SCFMode         .... Direct
   Integral package                     .... SHARK and LIBINT hybrid scheme
 Reset frequency        DirectResetFreq ....    20
 Integral Threshold     Thresh          ....  2.500e-11 Eh
 Primitive CutOff       TCut            ....  2.500e-12 Eh

Convergence Tolerance:
 Convergence Check Mode ConvCheckMode   .... Total+1el-Energy
 Convergence forced     ConvForced      .... 0
 Energy Change          TolE            ....  1.000e-08 Eh
 1-El. energy change                    ....  1.000e-05 Eh
 Orbital Gradient       TolG            ....  1.000e-05
 Orbital Rotation angle TolX            ....  1.000e-05
 DIIS Error             TolErr          ....  5.000e-07


Diagonalization of the overlap matrix:
Smallest eigenvalue                        ... 4.855e-06
Time for diagonalization                   ...    2.484 sec
Threshold for overlap eigenvalues          ... 1.000e-08
Number of eigenvalues below threshold      ... 0
Time for construction of square roots      ...    1.993 sec
Total time needed                          ...    4.508 sec

Time for model grid setup =    5.284 sec

------------------------------
INITIAL GUESS: MODEL POTENTIAL
------------------------------
Loading Hartree-Fock densities                     ... done
Calculating cut-offs                               ... done
Initializing the effective Hamiltonian             ... done
Setting up the integral package (SHARK)            ... done
Starting the Coulomb interaction                   ... done (   8.9 sec)
Reading the grid                                   ... done
Mapping shells                                     ... done
Starting the XC term evaluation                    ... done (   5.7 sec)
  promolecular density results
     # of electrons  =    168.007161092
     EX              =   -142.636630351
     EC              =    -10.835428757
     EX+EC           =   -153.472059108
Transforming the Hamiltonian                       ... done (   1.5 sec)
Diagonalizing the Hamiltonian                      ... done (   2.6 sec)
Back transforming the eigenvectors                 ... done (   0.7 sec)
Now organizing SCF variables                       ... done
                      ------------------
                      INITIAL GUESS DONE (  25.0 sec)
                      ------------------
-------------------
DFT GRID GENERATION
-------------------

General Integration Accuracy     IntAcc      ... 4.388
Radial Grid Type                 RadialGrid  ... OptM3 with GC (2021)
Angular Grid (max. ang.)         AngularGrid ... 4 (Lebedev-302)
Angular grid pruning method      GridPruning ... 4 (adaptive)
Weight generation scheme         WeightScheme... Becke
Basis function cutoff            BFCut       ... 1.0000e-11
Integration weight cutoff        WCut        ... 1.0000e-14
Angular grids for H and He will be reduced by one unit
Partially contracted basis set               ... off
Rotationally invariant grid construction     ... off

Total number of grid points                  ...   203345
Total number of batches                      ...     3196
Average number of points per batch           ...       63
Average number of grid points per atom       ...     4960
Time for grid setup =   11.957 sec


--------------------
CPCM SOLVATION MODEL
--------------------
CPCM parameters:
  Epsilon                                         ...       7.2500
  Refrac                                          ...       1.4070
  Rsolv                                           ...       1.3000
  Surface type                                    ... GAUSSIAN VDW
  Epsilon function type                           ...         CPCM
Radii:
 Radius for C  used is    3.8550 Bohr (=   2.0400 Ang.)
 Radius for H  used is    2.4944 Bohr (=   1.3200 Ang.)
 Radius for O  used is    3.4469 Bohr (=   1.8240 Ang.)
 Radius for Li used is    4.1272 Bohr (=   2.1840 Ang.)
Calculating surface                               ...        done! (  0.0s)
GEPOL surface points                              ...         2147
GEPOL Volume                                      ...    2665.3545
GEPOL Surface-area                                ...    1356.5956
Calculating surface distance matrix               ...        done! (  0.1s)
Performing Cholesky decomposition & store         ...        done! (  0.5s)
Overall time for CPCM initialization              ...                 0.7s
--------------
SCF ITERATIONS
--------------
ITER       Energy         Delta-E        Max-DP      RMS-DP      [F,P]     Damp
  0  -1080.7869756815   0.000000000000 0.11682576  0.00044748  0.4759863 0.7000
  1  -1080.7416054004   0.045370281135 0.17071371  0.00048058  0.2424083 0.7000
                               ***Turning on DIIS***
  2  -1081.0012877624  -0.259682361994 0.29798502  0.00068264  0.0646184 0.0000
  3  -1081.5584021879  -0.557114425538 0.05710539  0.00015759  0.1568034 0.7000
  4  -1081.6839006554  -0.125498467452 0.07072529  0.00017690  0.1153095 0.7000
  5  -1081.7178346891  -0.033934033716 0.20997155  0.00048611  0.0686355 0.0000
  6  -1081.6928159611   0.025018727963 0.00916608  0.00002659  0.0146385 0.0000
                      *** Initiating the SOSCF procedure ***
                           *** Shutting down DIIS ***
                      *** Re-Reading the Fockian *** 
                      *** Removing any level shift *** 
ITER      Energy       Delta-E        Grad      Rot      Max-DP    RMS-DP
  7  -1081.69377188  -0.0009559173  0.000345  0.000345  0.002955  0.000015
  8  -1081.69379142  -0.0000195405  0.000282  0.000817  0.001308  0.000006
  9  -1081.69377788   0.0000135435  0.000488  0.000536  0.000627  0.000004
 10  -1081.69380227  -0.0000243947  0.000061  0.000184  0.000776  0.000001
 11  -1081.69380192   0.0000003469  0.000094  0.000133  0.000274  0.000001
 12  -1081.69380277  -0.0000008487  0.000016  0.000041  0.000129  0.000000
 13  -1081.69380274   0.0000000274  0.000022  0.000027  0.000095  0.000000
                  ***Gradient check signals convergence***
              ***Rediagonalizing the Fockian in SOSCF/NRSCF***

               *****************************************************
               *                     SUCCESS                       *
               *           SCF CONVERGED AFTER  14 CYCLES          *
               *****************************************************


----------------
TOTAL SCF ENERGY
----------------

Total Energy       :        -1081.69380279 Eh          -29434.38479 eV

Components:
Nuclear Repulsion  :         1798.10787775 Eh           48929.00286 eV
Electronic Energy  :        -2879.80168054 Eh          -78363.38765 eV
One Electron Energy:        -5044.97302842 Eh         -137280.69532 eV
Two Electron Energy:         2165.17134788 Eh           58917.30767 eV
CPCM Dielectric    :           -0.03418808 Eh              -0.93031 eV

Virial components:
Potential Energy   :        -2158.29479842 Eh          -58730.18725 eV
Kinetic Energy     :         1076.60099563 Eh           29295.80246 eV
Virial Ratio       :            2.00473045


DFT components:
N(Alpha)           :       84.000019126130 electrons
N(Beta)            :       84.000019126130 electrons
N(Total)           :      168.000038252259 electrons
E(X)               :     -104.667520120280 Eh       
E(C)               :       -5.967067182908 Eh       
E(XC)              :     -110.634587303188 Eh       
DFET-embed. en.    :        0.000000000000 Eh       
CPCM Solvation Model Properties:
Surface-charge          :           -0.03499791
Charge-correction       :           -0.00021244 Eh              -0.00578 eV
Free-energy (cav+disp)  :  This term is not implemented in the current solvation scheme

---------------
SCF CONVERGENCE
---------------

  Last Energy change         ...   -4.8369e-08  Tolerance :   1.0000e-08
  Last MAX-Density change    ...    5.4115e-05  Tolerance :   1.0000e-07
  Last RMS-Density change    ...    3.3649e-07  Tolerance :   5.0000e-09
  Last Orbital Gradient      ...    1.9954e-06  Tolerance :   1.0000e-05
  Last Orbital Rotation      ...    7.4521e-06  Tolerance :   1.0000e-05

             **** THE GBW FILE WAS UPDATED (Li-Aldol_sp.gbw) ****
             **** DENSITY Li-Aldol_sp.scfp WAS UPDATED ****
             **** ENERGY FILE WAS UPDATED (Li-Aldol_sp.en.tmp) ****
             **** THE GBW FILE WAS UPDATED (Li-Aldol_sp.gbw) ****
             **** DENSITY Li-Aldol_sp.scfp WAS UPDATED ****
----------------
ORBITAL ENERGIES
----------------

  NO   OCC          E(Eh)            E(eV) 
   0   2.0000     -19.342622      -526.3395 
   1   2.0000     -19.334965      -526.1312 
   2   2.0000     -19.302452      -525.2464 
   3   2.0000     -19.286093      -524.8013 
   4   2.0000     -19.207865      -522.6726 
   5   2.0000     -10.436791      -283.9995 
   6   2.0000     -10.405832      -283.1571 
   7   2.0000     -10.374671      -282.3092 
   8   2.0000     -10.349678      -281.6291 
   9   2.0000     -10.347696      -281.5751 
  10   2.0000     -10.347057      -281.5577 
  11   2.0000     -10.325827      -280.9800 
  12   2.0000     -10.320767      -280.8424 
  13   2.0000     -10.316507      -280.7264 
  14   2.0000     -10.315163      -280.6899 
  15   2.0000     -10.313571      -280.6465 
  16   2.0000     -10.313441      -280.6430 
  17   2.0000     -10.312937      -280.6293 
  18   2.0000     -10.310647      -280.5670 
  19   2.0000     -10.309182      -280.5271 
  20   2.0000     -10.304302      -280.3943 
  21   2.0000     -10.299777      -280.2712 
  22   2.0000     -10.299109      -280.2530 
  23   2.0000      -1.998038       -54.3694 
  24   2.0000      -1.130138       -30.7526 
  25   2.0000      -1.100973       -29.9590 
  26   2.0000      -1.081920       -29.4405 
  27   2.0000      -1.048092       -28.5200 
  28   2.0000      -0.970474       -26.4080 
  29   2.0000      -0.895542       -24.3689 
  30   2.0000      -0.889878       -24.2148 
  31   2.0000      -0.811925       -22.0936 
  32   2.0000      -0.797970       -21.7139 
  33   2.0000      -0.792104       -21.5543 
  34   2.0000      -0.776473       -21.1289 
  35   2.0000      -0.764547       -20.8044 
  36   2.0000      -0.746810       -20.3217 
  37   2.0000      -0.724950       -19.7269 
  38   2.0000      -0.686107       -18.6699 
  39   2.0000      -0.658480       -17.9182 
  40   2.0000      -0.636669       -17.3246 
  41   2.0000      -0.633893       -17.2491 
  42   2.0000      -0.605477       -16.4759 
  43   2.0000      -0.586224       -15.9520 
  44   2.0000      -0.578836       -15.7509 
  45   2.0000      -0.554026       -15.0758 
  46   2.0000      -0.547933       -14.9100 
  47   2.0000      -0.518729       -14.1153 
  48   2.0000      -0.513440       -13.9714 
  49   2.0000      -0.504771       -13.7355 
  50   2.0000      -0.501003       -13.6330 
  51   2.0000      -0.500417       -13.6170 
  52   2.0000      -0.493185       -13.4202 
  53   2.0000      -0.491709       -13.3801 
  54   2.0000      -0.474135       -12.9019 
  55   2.0000      -0.467266       -12.7150 
  56   2.0000      -0.463107       -12.6018 
  57   2.0000      -0.455742       -12.4014 
  58   2.0000      -0.453300       -12.3349 
  59   2.0000      -0.443391       -12.0653 
  60   2.0000      -0.437502       -11.9050 
  61   2.0000      -0.434448       -11.8219 
  62   2.0000      -0.432068       -11.7572 
  63   2.0000      -0.420699       -11.4478 
  64   2.0000      -0.410165       -11.1611 
  65   2.0000      -0.399218       -10.8633 
  66   2.0000      -0.395976       -10.7750 
  67   2.0000      -0.392136       -10.6706 
  68   2.0000      -0.387523       -10.5450 
  69   2.0000      -0.381545       -10.3824 
  70   2.0000      -0.374507       -10.1909 
  71   2.0000      -0.365195        -9.9374 
  72   2.0000      -0.357073        -9.7165 
  73   2.0000      -0.355006        -9.6602 
  74   2.0000      -0.351581        -9.5670 
  75   2.0000      -0.322938        -8.7876 
  76   2.0000      -0.311561        -8.4780 
  77   2.0000      -0.306761        -8.3474 
  78   2.0000      -0.287724        -7.8294 
  79   2.0000      -0.276945        -7.5360 
  80   2.0000      -0.270069        -7.3489 
  81   2.0000      -0.255430        -6.9506 
  82   2.0000      -0.244760        -6.6603 
  83   2.0000      -0.236632        -6.4391 
  84   0.0000      -0.078160        -2.1268 
  85   0.0000      -0.040342        -1.0978 
  86   0.0000      -0.013338        -0.3629 
  87   0.0000      -0.012123        -0.3299 
  88   0.0000      -0.004206        -0.1145 
  89   0.0000       0.014466         0.3936 
  90   0.0000       0.017784         0.4839 
  91   0.0000       0.021028         0.5722 
  92   0.0000       0.028068         0.7638 
  93   0.0000       0.033106         0.9009 
  94   0.0000       0.034936         0.9506 
  95   0.0000       0.038363         1.0439 
  96   0.0000       0.041420         1.1271 
  97   0.0000       0.056432         1.5356 
  98   0.0000       0.057935         1.5765 
  99   0.0000       0.066563         1.8113 
 100   0.0000       0.068582         1.8662 
 101   0.0000       0.073926         2.0116 
 102   0.0000       0.077498         2.1088 
 103   0.0000       0.079179         2.1546 
 104   0.0000       0.081293         2.2121 
 105   0.0000       0.086965         2.3664 
 106   0.0000       0.089982         2.4485 
 107   0.0000       0.096988         2.6392 
 108   0.0000       0.100788         2.7426 
 109   0.0000       0.101337         2.7575 
 110   0.0000       0.110548         3.0082 
 111   0.0000       0.113003         3.0750 
 112   0.0000       0.113342         3.0842 
 113   0.0000       0.117478         3.1967 
 114   0.0000       0.120861         3.2888 
 115   0.0000       0.122969         3.3462 
 116   0.0000       0.126619         3.4455 
 117   0.0000       0.128447         3.4952 
 118   0.0000       0.132463         3.6045 
 119   0.0000       0.138457         3.7676 
 120   0.0000       0.140344         3.8189 
 121   0.0000       0.144479         3.9315 
 122   0.0000       0.146898         3.9973 
 123   0.0000       0.149958         4.0806 
 124   0.0000       0.154088         4.1929 
 125   0.0000       0.158702         4.3185 
 126   0.0000       0.159387         4.3371 
 127   0.0000       0.162712         4.4276 
 128   0.0000       0.165708         4.5092 
 129   0.0000       0.173333         4.7166 
 130   0.0000       0.177879         4.8403 
 131   0.0000       0.181412         4.9365 
 132   0.0000       0.189070         5.1449 
 133   0.0000       0.191145         5.2013 
 134   0.0000       0.195044         5.3074 
 135   0.0000       0.197725         5.3804 
 136   0.0000       0.200374         5.4525 
 137   0.0000       0.204776         5.5722 
 138   0.0000       0.206321         5.6143 
 139   0.0000       0.208116         5.6631 
 140   0.0000       0.217338         5.9141 
 141   0.0000       0.218812         5.9542 
 142   0.0000       0.223287         6.0760 
 143   0.0000       0.229755         6.2519 
 144   0.0000       0.232393         6.3237 
 145   0.0000       0.237033         6.4500 
 146   0.0000       0.238931         6.5017 
 147   0.0000       0.241975         6.5845 
 148   0.0000       0.243151         6.6165 
 149   0.0000       0.245268         6.6741 
 150   0.0000       0.251267         6.8373 
 151   0.0000       0.253958         6.9106 
 152   0.0000       0.255147         6.9429 
 153   0.0000       0.257113         6.9964 
 154   0.0000       0.262608         7.1459 
 155   0.0000       0.267550         7.2804 
 156   0.0000       0.270132         7.3507 
 157   0.0000       0.275298         7.4912 
 158   0.0000       0.276384         7.5208 
 159   0.0000       0.280366         7.6291 
 160   0.0000       0.282906         7.6983 
 161   0.0000       0.287246         7.8163 
 162   0.0000       0.291889         7.9427 
 163   0.0000       0.295230         8.0336 
 164   0.0000       0.296344         8.0639 
 165   0.0000       0.299501         8.1498 
 166   0.0000       0.300395         8.1742 
 167   0.0000       0.304287         8.2801 
 168   0.0000       0.305460         8.3120 
 169   0.0000       0.308530         8.3955 
 170   0.0000       0.314472         8.5572 
 171   0.0000       0.316174         8.6035 
 172   0.0000       0.316543         8.6136 
 173   0.0000       0.321455         8.7472 
 174   0.0000       0.322976         8.7886 
 175   0.0000       0.328341         8.9346 
 176   0.0000       0.331027         9.0077 
 177   0.0000       0.332381         9.0446 
 178   0.0000       0.334462         9.1012 
 179   0.0000       0.337962         9.1964 
 180   0.0000       0.339336         9.2338 
 181   0.0000       0.340047         9.2532 
 182   0.0000       0.345935         9.4134 
 183   0.0000       0.346467         9.4279 
 184   0.0000       0.349067         9.4986 
 185   0.0000       0.352548         9.5933 
 186   0.0000       0.356939         9.7128 
 187   0.0000       0.362750         9.8709 
 188   0.0000       0.362988         9.8774 
 189   0.0000       0.365596         9.9484 
 190   0.0000       0.369865        10.0645 
 191   0.0000       0.372378        10.1329 
 192   0.0000       0.379539        10.3278 
 193   0.0000       0.380454        10.3527 
 194   0.0000       0.388927        10.5832 
 195   0.0000       0.390517        10.6265 
 196   0.0000       0.391517        10.6537 
 197   0.0000       0.394983        10.7480 
 198   0.0000       0.401251        10.9186 
 199   0.0000       0.403480        10.9793 
 200   0.0000       0.406572        11.0634 
 201   0.0000       0.408095        11.1048 
 202   0.0000       0.413279        11.2459 
 203   0.0000       0.420824        11.4512 
 204   0.0000       0.424297        11.5457 
 205   0.0000       0.426418        11.6034 
 206   0.0000       0.434017        11.8102 
 207   0.0000       0.436910        11.8889 
 208   0.0000       0.441574        12.0158 
 209   0.0000       0.443522        12.0689 
 210   0.0000       0.445509        12.1229 
 211   0.0000       0.448753        12.2112 
 212   0.0000       0.451703        12.2915 
 213   0.0000       0.456596        12.4246 
 214   0.0000       0.460662        12.5352 
 215   0.0000       0.463234        12.6052 
 216   0.0000       0.466678        12.6990 
 217   0.0000       0.471372        12.8267 
 218   0.0000       0.471542        12.8313 
 219   0.0000       0.475753        12.9459 
 220   0.0000       0.481666        13.1068 
 221   0.0000       0.485288        13.2053 
 222   0.0000       0.486271        13.2321 
 223   0.0000       0.487848        13.2750 
 224   0.0000       0.493944        13.4409 
 225   0.0000       0.499345        13.5879 
 226   0.0000       0.500720        13.6253 
 227   0.0000       0.505146        13.7457 
 228   0.0000       0.506110        13.7719 
 229   0.0000       0.508862        13.8468 
 230   0.0000       0.512320        13.9409 
 231   0.0000       0.517232        14.0746 
 232   0.0000       0.520810        14.1719 
 233   0.0000       0.523304        14.2398 
 234   0.0000       0.524517        14.2728 
 235   0.0000       0.529514        14.4088 
 236   0.0000       0.532470        14.4893 
 237   0.0000       0.534057        14.5324 
 238   0.0000       0.536463        14.5979 
 239   0.0000       0.549476        14.9520 
 240   0.0000       0.550615        14.9830 
 241   0.0000       0.554054        15.0766 
 242   0.0000       0.560027        15.2391 
 243   0.0000       0.560640        15.2558 
 244   0.0000       0.562402        15.3037 
 245   0.0000       0.564682        15.3658 
 246   0.0000       0.569477        15.4963 
 247   0.0000       0.577692        15.7198 
 248   0.0000       0.578749        15.7486 
 249   0.0000       0.584272        15.8989 
 250   0.0000       0.589284        16.0352 
 251   0.0000       0.590664        16.0728 
 252   0.0000       0.593625        16.1533 
 253   0.0000       0.597372        16.2553 
 254   0.0000       0.608785        16.5659 
 255   0.0000       0.613057        16.6821 
 256   0.0000       0.617951        16.8153 
 257   0.0000       0.621183        16.9033 
 258   0.0000       0.623336        16.9618 
 259   0.0000       0.624119        16.9831 
 260   0.0000       0.627861        17.0850 
 261   0.0000       0.633893        17.2491 
 262   0.0000       0.643901        17.5214 
 263   0.0000       0.647361        17.6156 
 264   0.0000       0.650939        17.7129 
 265   0.0000       0.652589        17.7579 
 266   0.0000       0.656213        17.8565 
 267   0.0000       0.659928        17.9575 
 268   0.0000       0.666162        18.1272 
 269   0.0000       0.668551        18.1922 
 270   0.0000       0.672315        18.2946 
 271   0.0000       0.680997        18.5309 
 272   0.0000       0.688416        18.7327 
 273   0.0000       0.689779        18.7698 
 274   0.0000       0.695379        18.9222 
 275   0.0000       0.698722        19.0132 
 276   0.0000       0.701252        19.0820 
 277   0.0000       0.703838        19.1524 
 278   0.0000       0.706974        19.2377 
 279   0.0000       0.713686        19.4204 
 280   0.0000       0.717243        19.5172 
 281   0.0000       0.718430        19.5495 
 282   0.0000       0.722585        19.6625 
 283   0.0000       0.728537        19.8245 
 284   0.0000       0.729042        19.8382 
 285   0.0000       0.732308        19.9271 
 286   0.0000       0.735728        20.0202 
 287   0.0000       0.740526        20.1507 
 288   0.0000       0.742623        20.2078 
 289   0.0000       0.745588        20.2885 
 290   0.0000       0.748021        20.3547 
 291   0.0000       0.753436        20.5020 
 292   0.0000       0.757716        20.6185 
 293   0.0000       0.758982        20.6530 
 294   0.0000       0.763831        20.7849 
 295   0.0000       0.769276        20.9331 
 296   0.0000       0.781754        21.2726 
 297   0.0000       0.784018        21.3342 
 298   0.0000       0.786606        21.4047 
 299   0.0000       0.788550        21.4575 
 300   0.0000       0.790054        21.4985 
 301   0.0000       0.792521        21.5656 
 302   0.0000       0.798629        21.7318 
 303   0.0000       0.802634        21.8408 
 304   0.0000       0.807240        21.9661 
 305   0.0000       0.808461        21.9993 
 306   0.0000       0.810718        22.0608 
 307   0.0000       0.818240        22.2654 
 308   0.0000       0.820923        22.3385 
 309   0.0000       0.824938        22.4477 
 310   0.0000       0.825952        22.4753 
 311   0.0000       0.831514        22.6266 
 312   0.0000       0.831516        22.6267 
 313   0.0000       0.836918        22.7737 
 314   0.0000       0.840409        22.8687 
 315   0.0000       0.842763        22.9327 
 316   0.0000       0.846148        23.0249 
 317   0.0000       0.851791        23.1784 
 318   0.0000       0.858471        23.3602 
 319   0.0000       0.863245        23.4901 
 320   0.0000       0.866924        23.5902 
 321   0.0000       0.870293        23.6819 
 322   0.0000       0.873749        23.7759 
 323   0.0000       0.875468        23.8227 
 324   0.0000       0.877706        23.8836 
 325   0.0000       0.885245        24.0887 
 326   0.0000       0.886743        24.1295 
 327   0.0000       0.891653        24.2631 
 328   0.0000       0.897994        24.4357 
 329   0.0000       0.898887        24.4600 
 330   0.0000       0.906197        24.6589 
 331   0.0000       0.908233        24.7143 
 332   0.0000       0.914179        24.8761 
 333   0.0000       0.915577        24.9141 
 334   0.0000       0.917813        24.9750 
 335   0.0000       0.922284        25.0966 
 336   0.0000       0.926401        25.2087 
 337   0.0000       0.930393        25.3173 
 338   0.0000       0.934903        25.4400 
 339   0.0000       0.935535        25.4572 
 340   0.0000       0.942778        25.6543 
 341   0.0000       0.948079        25.7985 
 342   0.0000       0.953688        25.9512 
 343   0.0000       0.957652        26.0590 
 344   0.0000       0.958833        26.0912 
 345   0.0000       0.959766        26.1166 
 346   0.0000       0.964621        26.2487 
 347   0.0000       0.969648        26.3855 
 348   0.0000       0.973906        26.5013 
 349   0.0000       0.978208        26.6184 
 350   0.0000       0.982618        26.7384 
 351   0.0000       0.983214        26.7546 
 352   0.0000       0.991688        26.9852 
 353   0.0000       0.993216        27.0268 
 354   0.0000       0.995462        27.0879 
 355   0.0000       0.997895        27.1541 
 356   0.0000       0.999716        27.2037 
 357   0.0000       1.002125        27.2692 
 358   0.0000       1.008662        27.4471 
 359   0.0000       1.013444        27.5772 
 360   0.0000       1.017523        27.6882 
 361   0.0000       1.021829        27.8054 
 362   0.0000       1.024247        27.8712 
 363   0.0000       1.027938        27.9716 
 364   0.0000       1.030595        28.0439 
 365   0.0000       1.040009        28.3001 
 366   0.0000       1.043800        28.4032 
 367   0.0000       1.047066        28.4921 
 368   0.0000       1.048785        28.5389 
 369   0.0000       1.054154        28.6850 
 370   0.0000       1.058174        28.7944 
 371   0.0000       1.059968        28.8432 
 372   0.0000       1.064107        28.9558 
 373   0.0000       1.067545        29.0494 
 374   0.0000       1.073351        29.2074 
 375   0.0000       1.075013        29.2526 
 376   0.0000       1.078930        29.3592 
 377   0.0000       1.085668        29.5425 
 378   0.0000       1.092694        29.7337 
 379   0.0000       1.097136        29.8546 
 380   0.0000       1.098532        29.8926 
 381   0.0000       1.101090        29.9622 
 382   0.0000       1.104400        30.0523 
 383   0.0000       1.110546        30.2195 
 384   0.0000       1.115562        30.3560 
 385   0.0000       1.121143        30.5078 
 386   0.0000       1.123520        30.5725 
 387   0.0000       1.126775        30.6611 
 388   0.0000       1.129739        30.7418 
 389   0.0000       1.134011        30.8580 
 390   0.0000       1.139743        31.0140 
 391   0.0000       1.142257        31.0824 
 392   0.0000       1.143080        31.1048 
 393   0.0000       1.152632        31.3647 
 394   0.0000       1.156560        31.4716 
 395   0.0000       1.162306        31.6280 
 396   0.0000       1.164798        31.6958 
 397   0.0000       1.166092        31.7310 
 398   0.0000       1.173004        31.9191 
 399   0.0000       1.176337        32.0098 
 400   0.0000       1.182986        32.1907 
 401   0.0000       1.188145        32.3311 
 402   0.0000       1.195319        32.5263 
 403   0.0000       1.203473        32.7482 
 404   0.0000       1.207688        32.8629 
 405   0.0000       1.210043        32.9269 
 406   0.0000       1.212562        32.9955 
 407   0.0000       1.218635        33.1607 
 408   0.0000       1.221444        33.2372 
 409   0.0000       1.231296        33.5053 
 410   0.0000       1.238012        33.6880 
 411   0.0000       1.240334        33.7512 
 412   0.0000       1.245776        33.8993 
 413   0.0000       1.251978        34.0680 
 414   0.0000       1.259483        34.2723 
 415   0.0000       1.266599        34.4659 
 416   0.0000       1.268539        34.5187 
 417   0.0000       1.271608        34.6022 
 418   0.0000       1.275148        34.6985 
 419   0.0000       1.281826        34.8803 
 420   0.0000       1.284039        34.9405 
 421   0.0000       1.295859        35.2621 
 422   0.0000       1.303777        35.4776 
 423   0.0000       1.308341        35.6018 
 424   0.0000       1.313493        35.7420 
 425   0.0000       1.319298        35.8999 
 426   0.0000       1.321137        35.9500 
 427   0.0000       1.326132        36.0859 
 428   0.0000       1.333947        36.2985 
 429   0.0000       1.339315        36.4446 
 430   0.0000       1.350761        36.7561 
 431   0.0000       1.356588        36.9146 
 432   0.0000       1.358643        36.9706 
 433   0.0000       1.365318        37.1522 
 434   0.0000       1.367958        37.2240 
 435   0.0000       1.374774        37.4095 
 436   0.0000       1.379121        37.5278 
 437   0.0000       1.381521        37.5931 
 438   0.0000       1.387773        37.7632 
 439   0.0000       1.400658        38.1138 
 440   0.0000       1.402774        38.1714 
 441   0.0000       1.406122        38.2625 
 442   0.0000       1.413816        38.4719 
 443   0.0000       1.416461        38.5439 
 444   0.0000       1.417130        38.5621 
 445   0.0000       1.423771        38.7428 
 446   0.0000       1.436284        39.0833 
 447   0.0000       1.447608        39.3914 
 448   0.0000       1.451049        39.4851 
 449   0.0000       1.454522        39.5796 
 450   0.0000       1.459185        39.7064 
 451   0.0000       1.467632        39.9363 
 452   0.0000       1.469220        39.9795 
 453   0.0000       1.474144        40.1135 
 454   0.0000       1.481344        40.3094 
 455   0.0000       1.484266        40.3889 
 456   0.0000       1.491184        40.5772 
 457   0.0000       1.494784        40.6751 
 458   0.0000       1.497452        40.7477 
 459   0.0000       1.504526        40.9402 
 460   0.0000       1.507090        41.0100 
 461   0.0000       1.516901        41.2770 
 462   0.0000       1.520844        41.3843 
 463   0.0000       1.523715        41.4624 
 464   0.0000       1.545766        42.0624 
 465   0.0000       1.549636        42.1677 
 466   0.0000       1.559642        42.4400 
 467   0.0000       1.563736        42.5514 
 468   0.0000       1.570481        42.7350 
 469   0.0000       1.574474        42.8436 
 470   0.0000       1.583447        43.0878 
 471   0.0000       1.584801        43.1246 
 472   0.0000       1.597383        43.4670 
 473   0.0000       1.601015        43.5658 
 474   0.0000       1.608146        43.7599 
 475   0.0000       1.610644        43.8279 
 476   0.0000       1.612506        43.8785 
 477   0.0000       1.620623        44.0994 
 478   0.0000       1.631649        44.3994 
 479   0.0000       1.636152        44.5220 
 480   0.0000       1.642300        44.6893 
 481   0.0000       1.646322        44.7987 
 482   0.0000       1.650477        44.9118 
 483   0.0000       1.652649        44.9709 
 484   0.0000       1.656314        45.0706 
 485   0.0000       1.664544        45.2945 
 486   0.0000       1.667582        45.3772 
 487   0.0000       1.675247        45.5858 
 488   0.0000       1.683432        45.8085 
 489   0.0000       1.687823        45.9280 
 490   0.0000       1.697019        46.1782 
 491   0.0000       1.699728        46.2519 
 492   0.0000       1.708641        46.4945 
 493   0.0000       1.711787        46.5801 
 494   0.0000       1.720971        46.8300 
 495   0.0000       1.726412        46.9781 
 496   0.0000       1.730393        47.0864 
 497   0.0000       1.737568        47.2816 
 498   0.0000       1.743769        47.4504 
 499   0.0000       1.745203        47.4894 
 500   0.0000       1.751649        47.6648 
 501   0.0000       1.752330        47.6833 
 502   0.0000       1.759776        47.8859 
 503   0.0000       1.762878        47.9703 
 504   0.0000       1.769773        48.1580 
 505   0.0000       1.773312        48.2543 
 506   0.0000       1.782229        48.4969 
 507   0.0000       1.784060        48.5467 
 508   0.0000       1.787610        48.6433 
 509   0.0000       1.789588        48.6972 
 510   0.0000       1.794710        48.8366 
 511   0.0000       1.801855        49.0310 
 512   0.0000       1.808160        49.2025 
 513   0.0000       1.812183        49.3120 
 514   0.0000       1.818164        49.4748 
 515   0.0000       1.820872        49.5484 
 516   0.0000       1.826433        49.6998 
 517   0.0000       1.829548        49.7845 
 518   0.0000       1.835315        49.9415 
 519   0.0000       1.839923        50.0669 
 520   0.0000       1.848506        50.3004 
 521   0.0000       1.848950        50.3125 
 522   0.0000       1.853571        50.4382 
 523   0.0000       1.863878        50.7187 
 524   0.0000       1.865027        50.7500 
 525   0.0000       1.868010        50.8311 
 526   0.0000       1.870286        50.8931 
 527   0.0000       1.873879        50.9909 
 528   0.0000       1.882949        51.2376 
 529   0.0000       1.886970        51.3471 
 530   0.0000       1.888424        51.3866 
 531   0.0000       1.892667        51.5021 
 532   0.0000       1.896791        51.6143 
 533   0.0000       1.905598        51.8540 
 534   0.0000       1.913022        52.0560 
 535   0.0000       1.913872        52.0791 
 536   0.0000       1.918332        52.2005 
 537   0.0000       1.919579        52.2344 
 538   0.0000       1.923464        52.3401 
 539   0.0000       1.924065        52.3565 
 540   0.0000       1.931447        52.5573 
 541   0.0000       1.937574        52.7241 
 542   0.0000       1.942333        52.8536 
 543   0.0000       1.943852        52.8949 
 544   0.0000       1.955108        53.2012 
 545   0.0000       1.957344        53.2620 
 546   0.0000       1.964068        53.4450 
 547   0.0000       1.971416        53.6449 
 548   0.0000       1.972186        53.6659 
 549   0.0000       1.977126        53.8003 
 550   0.0000       1.981143        53.9096 
 551   0.0000       1.982406        53.9440 
 552   0.0000       1.989423        54.1350 
 553   0.0000       1.992596        54.2213 
 554   0.0000       1.997114        54.3442 
 555   0.0000       2.000279        54.4304 
 556   0.0000       2.011168        54.7267 
 557   0.0000       2.013359        54.7863 
 558   0.0000       2.020714        54.9864 
 559   0.0000       2.023754        55.0692 
 560   0.0000       2.028086        55.1870 
 561   0.0000       2.035615        55.3919 
 562   0.0000       2.036845        55.4254 
 563   0.0000       2.041444        55.5505 
 564   0.0000       2.042031        55.5665 
 565   0.0000       2.042772        55.5867 
 566   0.0000       2.051615        55.8273 
 567   0.0000       2.053355        55.8746 
 568   0.0000       2.058687        56.0197 
 569   0.0000       2.063016        56.1375 
 570   0.0000       2.066531        56.2332 
 571   0.0000       2.074251        56.4432 
 572   0.0000       2.076770        56.5118 
 573   0.0000       2.082782        56.6754 
 574   0.0000       2.084666        56.7266 
 575   0.0000       2.088452        56.8297 
 576   0.0000       2.094981        57.0073 
 577   0.0000       2.097746        57.0826 
 578   0.0000       2.102676        57.2167 
 579   0.0000       2.106640        57.3246 
 580   0.0000       2.109820        57.4111 
 581   0.0000       2.114246        57.5316 
 582   0.0000       2.116653        57.5971 
 583   0.0000       2.119448        57.6731 
 584   0.0000       2.123876        57.7936 
 585   0.0000       2.133223        58.0480 
 586   0.0000       2.135747        58.1166 
 587   0.0000       2.141157        58.2638 
 588   0.0000       2.144622        58.3581 
 589   0.0000       2.145010        58.3687 
 590   0.0000       2.157594        58.7111 
 591   0.0000       2.160511        58.7905 
 592   0.0000       2.167867        58.9907 
 593   0.0000       2.169791        59.0430 
 594   0.0000       2.174511        59.1715 
 595   0.0000       2.175775        59.2059 
 596   0.0000       2.179050        59.2950 
 597   0.0000       2.185726        59.4766 
 598   0.0000       2.188516        59.5526 
 599   0.0000       2.192953        59.6733 
 600   0.0000       2.195860        59.7524 
 601   0.0000       2.201600        59.9086 
 602   0.0000       2.204510        59.9878 
 603   0.0000       2.208639        60.1001 
 604   0.0000       2.213598        60.2351 
 605   0.0000       2.213987        60.2457 
 606   0.0000       2.220239        60.4158 
 607   0.0000       2.224763        60.5389 
 608   0.0000       2.230545        60.6962 
 609   0.0000       2.232836        60.7585 
 610   0.0000       2.240955        60.9795 
 611   0.0000       2.246158        61.1211 
 612   0.0000       2.253641        61.3247 
 613   0.0000       2.256991        61.4158 
 614   0.0000       2.259534        61.4850 
 615   0.0000       2.261573        61.5405 
 616   0.0000       2.261886        61.5491 
 617   0.0000       2.267563        61.7035 
 618   0.0000       2.272453        61.8366 
 619   0.0000       2.274180        61.8836 
 620   0.0000       2.277561        61.9756 
 621   0.0000       2.283868        62.1472 
 622   0.0000       2.290590        62.3301 
 623   0.0000       2.296083        62.4796 
 624   0.0000       2.303159        62.6721 
 625   0.0000       2.309419        62.8425 
 626   0.0000       2.312732        62.9326 
 627   0.0000       2.314939        62.9927 
 628   0.0000       2.318692        63.0948 
 629   0.0000       2.322611        63.2015 
 630   0.0000       2.327307        63.3293 
 631   0.0000       2.333051        63.4856 
 632   0.0000       2.335758        63.5592 
 633   0.0000       2.343034        63.7572 
 634   0.0000       2.346825        63.8604 
 635   0.0000       2.348237        63.8988 
 636   0.0000       2.358849        64.1875 
 637   0.0000       2.360925        64.2440 
 638   0.0000       2.363925        64.3257 
 639   0.0000       2.368450        64.4488 
 640   0.0000       2.373454        64.5850 
 641   0.0000       2.376885        64.6783 
 642   0.0000       2.383342        64.8540 
 643   0.0000       2.392257        65.0966 
 644   0.0000       2.393369        65.1269 
 645   0.0000       2.399074        65.2821 
 646   0.0000       2.407122        65.5011 
 647   0.0000       2.409299        65.5604 
 648   0.0000       2.411240        65.6132 
 649   0.0000       2.414589        65.7043 
 650   0.0000       2.415587        65.7315 
 651   0.0000       2.425789        66.0091 
 652   0.0000       2.428107        66.0722 
 653   0.0000       2.429159        66.1008 
 654   0.0000       2.439786        66.3899 
 655   0.0000       2.443128        66.4809 
 656   0.0000       2.445842        66.5547 
 657   0.0000       2.453438        66.7614 
 658   0.0000       2.459824        66.9352 
 659   0.0000       2.464508        67.0627 
 660   0.0000       2.467084        67.1328 
 661   0.0000       2.472007        67.2667 
 662   0.0000       2.478407        67.4409 
 663   0.0000       2.482907        67.5633 
 664   0.0000       2.485050        67.6216 
 665   0.0000       2.493230        67.8442 
 666   0.0000       2.502830        68.1055 
 667   0.0000       2.503997        68.1372 
 668   0.0000       2.510137        68.3043 
 669   0.0000       2.516469        68.4766 
 670   0.0000       2.517766        68.5119 
 671   0.0000       2.523851        68.6775 
 672   0.0000       2.524819        68.7038 
 673   0.0000       2.529974        68.8441 
 674   0.0000       2.533182        68.9314 
 675   0.0000       2.537777        69.0564 
 676   0.0000       2.544116        69.2289 
 677   0.0000       2.545608        69.2695 
 678   0.0000       2.555656        69.5429 
 679   0.0000       2.561506        69.7021 
 680   0.0000       2.567559        69.8668 
 681   0.0000       2.570718        69.9528 
 682   0.0000       2.578857        70.1743 
 683   0.0000       2.580342        70.2147 
 684   0.0000       2.585583        70.3573 
 685   0.0000       2.589502        70.4639 
 686   0.0000       2.596055        70.6423 
 687   0.0000       2.601422        70.7883 
 688   0.0000       2.603784        70.8526 
 689   0.0000       2.607525        70.9544 
 690   0.0000       2.615620        71.1747 
 691   0.0000       2.619374        71.2768 
 692   0.0000       2.625353        71.4395 
 693   0.0000       2.627166        71.4888 
 694   0.0000       2.633468        71.6603 
 695   0.0000       2.635624        71.7190 
 696   0.0000       2.641892        71.8895 
 697   0.0000       2.644536        71.9615 
 698   0.0000       2.647213        72.0343 
 699   0.0000       2.649093        72.0855 
 700   0.0000       2.657006        72.3008 
 701   0.0000       2.663095        72.4665 
 702   0.0000       2.663803        72.4858 
 703   0.0000       2.666945        72.5713 
 704   0.0000       2.673701        72.7551 
 705   0.0000       2.675682        72.8090 
 706   0.0000       2.681115        72.9569 
 707   0.0000       2.686835        73.1125 
 708   0.0000       2.689664        73.1895 
 709   0.0000       2.700743        73.4909 
 710   0.0000       2.704214        73.5854 
 711   0.0000       2.706331        73.6430 
 712   0.0000       2.709239        73.7221 
 713   0.0000       2.715026        73.8796 
 714   0.0000       2.718729        73.9804 
 715   0.0000       2.720805        74.0369 
 716   0.0000       2.722422        74.0809 
 717   0.0000       2.726206        74.1838 
 718   0.0000       2.732233        74.3479 
 719   0.0000       2.743046        74.6421 
 720   0.0000       2.743453        74.6532 
 721   0.0000       2.746447        74.7346 
 722   0.0000       2.755716        74.9868 
 723   0.0000       2.757429        75.0335 
 724   0.0000       2.767819        75.3162 
 725   0.0000       2.769654        75.3661 
 726   0.0000       2.772195        75.4352 
 727   0.0000       2.777593        75.5821 
 728   0.0000       2.782205        75.7077 
 729   0.0000       2.789798        75.9143 
 730   0.0000       2.791846        75.9700 
 731   0.0000       2.796186        76.0881 
 732   0.0000       2.799858        76.1880 
 733   0.0000       2.806057        76.3567 
 734   0.0000       2.808998        76.4367 
 735   0.0000       2.813069        76.5475 
 736   0.0000       2.820896        76.7605 
 737   0.0000       2.827578        76.9423 
 738   0.0000       2.830030        77.0090 
 739   0.0000       2.832685        77.0813 
 740   0.0000       2.839636        77.2704 
 741   0.0000       2.841670        77.3258 
 742   0.0000       2.845966        77.4427 
 743   0.0000       2.851932        77.6050 
 744   0.0000       2.861068        77.8536 
 745   0.0000       2.865081        77.9628 
 746   0.0000       2.868724        78.0619 
 747   0.0000       2.874826        78.2280 
 748   0.0000       2.876592        78.2761 
 749   0.0000       2.880799        78.3905 
 750   0.0000       2.883096        78.4530 
 751   0.0000       2.890929        78.6662 
 752   0.0000       2.900325        78.9219 
 753   0.0000       2.906485        79.0895 
 754   0.0000       2.912300        79.2477 
 755   0.0000       2.915614        79.3379 
 756   0.0000       2.921235        79.4908 
 757   0.0000       2.931199        79.7620 
 758   0.0000       2.935178        79.8703 
 759   0.0000       2.941812        80.0508 
 760   0.0000       2.943992        80.1101 
 761   0.0000       2.954497        80.3959 
 762   0.0000       2.958532        80.5057 
 763   0.0000       2.965309        80.6901 
 764   0.0000       2.967760        80.7569 
 765   0.0000       2.974668        80.9448 
 766   0.0000       2.979943        81.0884 
 767   0.0000       2.988761        81.3283 
 768   0.0000       2.992526        81.4308 
 769   0.0000       2.996875        81.5491 
 770   0.0000       3.002187        81.6937 
 771   0.0000       3.008045        81.8531 
 772   0.0000       3.012808        81.9827 
 773   0.0000       3.022145        82.2367 
 774   0.0000       3.024265        82.2944 
 775   0.0000       3.030655        82.4683 
 776   0.0000       3.036316        82.6223 
 777   0.0000       3.043364        82.8141 
 778   0.0000       3.045803        82.8805 
 779   0.0000       3.047609        82.9297 
 780   0.0000       3.055553        83.1458 
[...]
      f+1     :     0.022673
      f-1     :     0.018337
      f+2     :     0.024003
      f-2     :     0.024427
      f+3     :     0.014213
      f-3     :     0.015950
      g0      :     0.001645  g :     0.014098
      g+1     :     0.001836
      g-1     :     0.001873
      g+2     :     0.001737
      g-2     :     0.002224
      g+3     :     0.001612
      g-3     :     0.000987
      g+4     :     0.001164
      g-4     :     0.001020
 26 C s       :     2.583839  s :     2.583839
      pz      :     0.923573  p :     2.695404
      px      :     0.859102
      py      :     0.912729
      dz2     :     0.108383  d :     0.510874
      dxz     :     0.074694
      dyz     :     0.135639
      dx2y2   :     0.103672
      dxy     :     0.088486
      f0      :     0.020797  f :     0.114386
      f+1     :     0.014812
      f-1     :     0.015124
      f+2     :     0.017916
      f-2     :     0.018593
      f+3     :     0.011187
      f-3     :     0.015958
      g0      :     0.000773  g :     0.011397
      g+1     :     0.001447
      g-1     :     0.001436
      g+2     :     0.001131
      g-2     :     0.001388
      g+3     :     0.001910
      g-3     :     0.000716
      g+4     :     0.001397
      g-4     :     0.001198
 27 C s       :     2.632358  s :     2.632358
      pz      :     0.868333  p :     2.594200
      px      :     0.753593
      py      :     0.972273
      dz2     :     0.306842  d :     1.120669
      dxz     :     0.216004
      dyz     :     0.277800
      dx2y2   :     0.165687
      dxy     :     0.154336
      f0      :     0.065692  f :     0.350225
      f+1     :     0.032908
      f-1     :     0.076593
      f+2     :     0.050983
      f-2     :     0.074111
      f+3     :     0.022998
      f-3     :     0.026940
      g0      :     0.004996  g :     0.047367
      g+1     :     0.004580
      g-1     :     0.009276
      g+2     :     0.007045
      g-2     :     0.007483
      g+3     :     0.005916
      g-3     :     0.003737
      g+4     :     0.002115
      g-4     :     0.002219
 28 O s       :     3.098257  s :     3.098257
      pz      :     1.316310  p :     4.204042
      px      :     1.445980
      py      :     1.441752
      dz2     :     0.046383  d :     0.174726
      dxz     :     0.041494
      dyz     :     0.044559
      dx2y2   :     0.020688
      dxy     :     0.021602
      f0      :     0.004976  f :     0.026085
      f+1     :     0.003607
      f-1     :     0.005627
      f+2     :     0.003460
      f-2     :     0.004871
      f+3     :     0.001451
      f-3     :     0.002092
      g0      :     0.000114  g :     0.000934
      g+1     :     0.000155
      g-1     :     0.000109
      g+2     :     0.000153
      g-2     :     0.000179
      g+3     :     0.000084
      g-3     :     0.000090
      g+4     :     0.000031
      g-4     :     0.000018
 29 O s       :     3.267401  s :     3.267401
      pz      :     1.475546  p :     4.338120
      px      :     1.386804
      py      :     1.475770
      dz2     :     0.023302  d :     0.095059
      dxz     :     0.013906
      dyz     :     0.031363
      dx2y2   :     0.014137
      dxy     :     0.012352
      f0      :     0.003557  f :     0.020700
      f+1     :     0.001219
      f-1     :     0.005658
      f+2     :     0.003849
      f-2     :     0.003752
      f+3     :     0.001423
      f-3     :     0.001240
      g0      :     0.000090  g :     0.001147
      g+1     :     0.000013
      g-1     :     0.000327
      g+2     :     0.000216
      g-2     :     0.000134
      g+3     :     0.000157
      g-3     :     0.000138
      g+4     :     0.000029
      g-4     :     0.000042
 30 C s       :     2.576874  s :     2.576874
      pz      :     0.850791  p :     2.666628
      px      :     0.965671
      py      :     0.850166
      dz2     :     0.075759  d :     0.494871
      dxz     :     0.110392
      dyz     :     0.126542
      dx2y2   :     0.125927
      dxy     :     0.056250
      f0      :     0.021042  f :     0.142100
      f+1     :     0.010581
      f-1     :     0.027723
      f+2     :     0.027362
      f-2     :     0.022683
      f+3     :     0.015018
      f-3     :     0.017691
      g0      :     0.000910  g :     0.012870
      g+1     :     0.000470
      g-1     :     0.002623
      g+2     :     0.001810
      g-2     :     0.001457
      g+3     :     0.001857
      g-3     :     0.002221
      g+4     :     0.000802
      g-4     :     0.000721
 31 H s       :     0.804322  s :     0.804322
      pz      :     0.071746  p :     0.188205
      px      :     0.071201
      py      :     0.045258
      dz2     :     0.018202  d :     0.064450
      dxz     :     0.013754
      dyz     :     0.014402
      dx2y2   :     0.009656
      dxy     :     0.008437
      f0      :     0.001420  f :     0.008989
      f+1     :     0.002435
      f-1     :     0.000886
      f+2     :     0.001508
      f-2     :     0.001777
      f+3     :     0.000525
      f-3     :     0.000438
 32 H s       :     0.802792  s :     0.802792
      pz      :     0.052036  p :     0.187315
      px      :     0.087804
      py      :     0.047475
      dz2     :     0.007815  d :     0.064609
      dxz     :     0.018948
      dyz     :     0.005912
      dx2y2   :     0.016802
      dxy     :     0.015133
      f0      :     0.000802  f :     0.009090
      f+1     :     0.001774
      f-1     :     0.000091
      f+2     :     0.001626
      f-2     :     0.001339
      f+3     :     0.002084
      f-3     :     0.001374
 33 H s       :     0.794134  s :     0.794134
      pz      :     0.054697  p :     0.193059
      px      :     0.055334
      py      :     0.083029
      dz2     :     0.008879  d :     0.065712
      dxz     :     0.007745
      dyz     :     0.016037
      dx2y2   :     0.013254
      dxy     :     0.019797
      f0      :     0.000598  f :     0.009066
      f+1     :     0.000068
      f-1     :     0.001840
      f+2     :     0.001499
      f-2     :     0.001658
      f+3     :     0.001966
      f-3     :     0.001436
 34 H s       :     0.780460  s :     0.780460
      pz      :     0.084108  p :     0.191210
      px      :     0.049133
      py      :     0.057969
      dz2     :     0.019799  d :     0.065217
      dxz     :     0.017625
      dyz     :     0.016898
      dx2y2   :     0.005498
      dxy     :     0.005396
      f0      :     0.002632  f :     0.009554
      f+1     :     0.001694
      f-1     :     0.002127
      f+2     :     0.001362
      f-2     :     0.001389
      f+3     :     0.000179
      f-3     :     0.000172
 35 H s       :     0.782028  s :     0.782028
      pz      :     0.069955  p :     0.188240
      px      :     0.066701
      py      :     0.051584
      dz2     :     0.019210  d :     0.064815
      dxz     :     0.013364
      dyz     :     0.012286
      dx2y2   :     0.010141
      dxy     :     0.009814
      f0      :     0.001723  f :     0.009494
      f+1     :     0.001989
      f-1     :     0.001053
      f+2     :     0.001767
      f-2     :     0.001730
      f+3     :     0.000671
      f-3     :     0.000561
 36 H s       :     0.783168  s :     0.783168
      pz      :     0.069897  p :     0.187840
      px      :     0.064984
      py      :     0.052958
      dz2     :     0.019173  d :     0.064394
      dxz     :     0.013434
      dyz     :     0.012437
      dx2y2   :     0.009710
      dxy     :     0.009640
      f0      :     0.001748  f :     0.009497
      f+1     :     0.001963
      f-1     :     0.001112
      f+2     :     0.001750
      f-2     :     0.001724
      f+3     :     0.000656
      f-3     :     0.000543
 37 H s       :     0.775025  s :     0.775025
      pz      :     0.082287  p :     0.195180
      px      :     0.048964
      py      :     0.063929
      dz2     :     0.020690  d :     0.065436
      dxz     :     0.016370
      dyz     :     0.016360
      dx2y2   :     0.005884
      dxy     :     0.006132
      f0      :     0.002588  f :     0.009561
      f+1     :     0.001536
      f-1     :     0.002110
      f+2     :     0.001430
      f-2     :     0.001474
      f+3     :     0.000216
      f-3     :     0.000207
 38 H s       :     0.760695  s :     0.760695
      pz      :     0.076553  p :     0.198443
      px      :     0.054396
      py      :     0.067495
      dz2     :     0.020631  d :     0.069426
      dxz     :     0.011112
      dyz     :     0.014011
      dx2y2   :     0.010570
      dxy     :     0.013102
      f0      :     0.001756  f :     0.009686
      f+1     :     0.000661
      f-1     :     0.001972
      f+2     :     0.001808
      f-2     :     0.001859
      f+3     :     0.000726
      f-3     :     0.000905
 39 H s       :     0.735710  s :     0.735710
      pz      :     0.085054  p :     0.191178
      px      :     0.051448
      py      :     0.054676
      dz2     :     0.020413  d :     0.069900
      dxz     :     0.019312
      dyz     :     0.019467
      dx2y2   :     0.003696
      dxy     :     0.007012
      f0      :     0.002783  f :     0.009618
      f+1     :     0.001603
      f-1     :     0.002189
      f+2     :     0.001103
      f-2     :     0.001628
      f+3     :     0.000222
      f-3     :     0.000091
 40 H s       :     0.774203  s :     0.774203
      pz      :     0.084686  p :     0.183709
      px      :     0.046546
      py      :     0.052476
      dz2     :     0.020134  d :     0.065257
      dxz     :     0.016287
      dyz     :     0.017414
      dx2y2   :     0.004243
      dxy     :     0.007178
      f0      :     0.002489  f :     0.008742
      f+1     :     0.001355
      f-1     :     0.002042
      f+2     :     0.001041
      f-2     :     0.001446
      f+3     :     0.000244
      f-3     :     0.000124


                      *****************************
                      * MAYER POPULATION ANALYSIS *
                      *****************************

  NA   - Mulliken gross atomic population
  ZA   - Total nuclear charge
  QA   - Mulliken gross atomic charge
  VA   - Mayer's total valence
  BVA  - Mayer's bonded valence
  FA   - Mayer's free valence

  ATOM       NA         ZA         QA         VA         BVA        FA
  0 C      5.8880     6.0000     0.1120     3.9498     3.9498     0.0000
  1 C      6.0797     6.0000    -0.0797     3.7769     3.7769    -0.0000
  2 C      6.1936     6.0000    -0.1936     3.9095     3.9095    -0.0000
  3 C      6.1338     6.0000    -0.1338     3.8311     3.8311    -0.0000
  4 C      5.9161     6.0000     0.0839     3.6277     3.6277     0.0000
  5 C      6.0441     6.0000    -0.0441     3.6880     3.6880    -0.0000
  6 H      0.8882     1.0000     0.1118     1.0185     1.0185    -0.0000
  7 H      0.8764     1.0000     0.1236     0.9949     0.9949     0.0000
  8 H      0.8655     1.0000     0.1345     0.9799     0.9799    -0.0000
  9 H      0.8890     1.0000     0.1110     0.9941     0.9941     0.0000
 10 C      5.7313     6.0000     0.2687     3.8043     3.8043     0.0000
 11 O      8.3682     8.0000    -0.3682     2.0845     2.0845    -0.0000
 12 C      6.0813     6.0000    -0.0813     3.8126     3.8126     0.0000
 13 H      0.8898     1.0000     0.1102     0.9834     0.9834    -0.0000
 14 H      0.8676     1.0000     0.1324     0.9810     0.9810     0.0000
 15 H      0.8896     1.0000     0.1104     0.9833     0.9833    -0.0000
 16 C      6.1554     6.0000    -0.1554     3.7456     3.7456     0.0000
 17 O      8.3598     8.0000    -0.3598     2.2056     2.2056     0.0000
 18 C      5.8699     6.0000     0.1301     4.0169     4.0169     0.0000
 19 O      8.5914     8.0000    -0.5914     2.0031     2.0031     0.0000
 20 Li     2.6087     3.0000     0.3913     1.1653     1.1653    -0.0000
 21 C      5.8942     6.0000     0.1058     3.6212     3.6212    -0.0000
 22 C      6.1647     6.0000    -0.1647     3.8250     3.8250     0.0000
 23 C      6.1902     6.0000    -0.1902     3.8352     3.8352     0.0000
 24 C      6.1535     6.0000    -0.1535     3.8597     3.8597    -0.0000
 25 C      6.0097     6.0000    -0.0097     3.6600     3.6600     0.0000
 26 C      6.0887     6.0000    -0.0887     3.8085     3.8085     0.0000
 27 C      5.6423     6.0000     0.3577     4.2599     4.2599     0.0000
 28 O      8.3169     8.0000    -0.3169     2.1534     2.1534     0.0000
 29 O      8.4120     8.0000    -0.4120     2.0969     2.0969    -0.0000
 30 C      6.0764     6.0000    -0.0764     3.7888     3.7888    -0.0000
 31 H      0.8697     1.0000     0.1303     0.9701     0.9701     0.0000
 32 H      0.8754     1.0000     0.1246     0.9845     0.9845    -0.0000
 33 H      0.8910     1.0000     0.1090     0.9916     0.9916    -0.0000
 34 H      0.8890     1.0000     0.1110     0.9802     0.9802     0.0000
 35 H      0.8874     1.0000     0.1126     0.9886     0.9886     0.0000
 36 H      0.8751     1.0000     0.1249     0.9916     0.9916    -0.0000
 37 H      0.8792     1.0000     0.1208     1.0031     1.0031     0.0000
 38 H      0.9243     1.0000     0.0757     1.0043     1.0043     0.0000
 39 H      0.8634     1.0000     0.1366     0.9692     0.9692     0.0000
 40 H      0.9098     1.0000     0.0902     0.9596     0.9596     0.0000

  Mayer bond orders larger than 0.100000
B(  0-C ,  1-C ) :   1.3200 B(  0-C ,  5-C ) :   1.3304 B(  0-C , 11-O ) :   1.1356 
B(  1-C ,  2-C ) :   1.3537 B(  1-C ,  7-H ) :   0.9504 B(  2-C ,  3-C ) :   1.4216 
B(  2-C ,  8-H ) :   0.9485 B(  3-C ,  4-C ) :   1.2733 B(  3-C ,  9-H ) :   0.9591 
B(  4-C ,  5-C ) :   1.2878 B(  4-C , 10-C ) :   1.0083 B(  5-C ,  6-H ) :   0.9401 
B( 10-C , 16-C ) :   1.0133 B( 10-C , 17-O ) :   1.6872 B( 11-O , 12-C ) :   0.8969 
B( 12-C , 13-H ) :   0.9604 B( 12-C , 14-H ) :   0.9679 B( 12-C , 15-H ) :   0.9606 
B( 16-C , 18-C ) :   0.8508 B( 16-C , 38-H ) :   0.9400 B( 16-C , 39-H ) :   0.9192 
B( 17-O , 20-Li) :   0.3898 B( 18-C , 19-O ) :   1.2853 B( 18-C , 21-C ) :   0.8875 
B( 18-C , 40-H ) :   0.9438 B( 19-O , 20-Li) :   0.6795 B( 21-C , 22-C ) :   1.2837 
B( 21-C , 23-C ) :   1.3111 B( 22-C , 26-C ) :   1.4175 B( 22-C , 35-H ) :   0.9638 
B( 23-C , 24-C ) :   1.3893 B( 23-C , 37-H ) :   0.9552 B( 24-C , 25-C ) :   1.3150 
B( 24-C , 36-H ) :   0.9536 B( 25-C , 26-C ) :   1.2722 B( 25-C , 27-C ) :   0.9781 
B( 26-C , 34-H ) :   0.9539 B( 27-C , 28-O ) :   1.2383 B( 27-C , 29-O ) :   1.9838 
B( 28-O , 30-C ) :   0.8647 B( 30-C , 31-H ) :   0.9632 B( 30-C , 32-H ) :   0.9660 
B( 30-C , 33-H ) :   0.9540 

-------
TIMINGS
-------

Total SCF time: 0 days 1 hours 5 min 11 sec 

Total time                  ....    3911.819 sec
Sum of individual times     ....    3886.702 sec  ( 99.4%)

Fock matrix formation       ....    3763.665 sec  ( 96.2%)
  XC integration            ....     563.949 sec  ( 15.0% of F)
    Basis function eval.    ....      38.315 sec  (  6.8% of XC)
    Density eval.           ....     257.724 sec  ( 45.7% of XC)
    XC-Functional eval.     ....       5.385 sec  (  1.0% of XC)
    XC-Potential eval.      ....     235.700 sec  ( 41.8% of XC)
Diagonalization             ....      34.874 sec  (  0.9%)
Density matrix formation    ....       1.727 sec  (  0.0%)
Population analysis         ....       6.019 sec  (  0.2%)
Initial guess               ....      19.689 sec  (  0.5%)
Orbital Transformation      ....       0.000 sec  (  0.0%)
Orbital Orthonormalization  ....       0.000 sec  (  0.0%)
DIIS solution               ....      18.312 sec  (  0.5%)
SOSCF solution              ....      25.174 sec  (  0.6%)
Grid generation             ....      17.242 sec  (  0.4%)

Maximum memory used throughout the entire SCF-calculation: 1312.0 MB


-------------------------------------------------------------------------------
                          DFT DISPERSION CORRECTION                            
                                                                               
                              DFTD3 V3.1  Rev 1                                
                          USING Becke-Johnson damping                          
-------------------------------------------------------------------------------
The PW6B95 functional is recognized
Active option DFTDOPT                   ...         4   

molecular C6(AA) [au] = 19870.847912 


            DFT-D V3
 parameters
 s6 scaling factor         :     1.0000 
 a1 scaling factor         :     0.2076 
 s8 scaling factor         :     0.7257 
 a2 scaling factor         :     6.3750 
 ad hoc parameters k1-k3   :    16.0000     1.3333    -4.0000 

 Edisp/kcal,au: -17.122472581657  -0.027286394011 
 E6   /kcal   : -12.959987616 
 E8   /kcal   :  -4.162484966 
 % E8         :  24.310069390 

-------------------------   ----------------
Dispersion correction           -0.027286394
-------------------------   ----------------


-------------------------   --------------------
FINAL SINGLE POINT ENERGY     -1081.721089186943
-------------------------   --------------------


                            ***************************************
                            *     ORCA property calculations      *
                            ***************************************

                                    ---------------------
                                    Active property flags
                                    ---------------------
   (+) Dipole Moment


------------------------------------------------------------------------------
                       ORCA ELECTRIC PROPERTIES CALCULATION
------------------------------------------------------------------------------

Dipole Moment Calculation                       ... on
Quadrupole Moment Calculation                   ... off
Polarizability Calculation                      ... off
GBWName                                         ... Li-Aldol_sp.gbw
Electron density                                ... Li-Aldol_sp.scfp
The origin for moment calculation is the CENTER OF MASS  = (13.803176, -9.252826 -0.697598)

-------------
DIPOLE MOMENT
-------------
                                X             Y             Z
Electronic contribution:      4.51631       0.35976      14.94649
Nuclear contribution   :     -7.42027       2.57200     -16.71689
                        -----------------------------------------
Total Dipole Moment    :     -2.90396       2.93177      -1.77040
                        -----------------------------------------
Magnitude (a.u.)       :      4.49027
Magnitude (Debye)      :     11.41336



--------------------
Rotational spectrum 
--------------------
 
Rotational constants in cm-1:     0.020499     0.002793     0.002554 
Rotational constants in MHz :   614.533605    83.741341    76.571600 

 Dipole components along the rotational axes: 
x,y,z [a.u.] :    -4.194099    -1.295893    -0.944845 
x,y,z [Debye]:   -10.660552    -3.293899    -2.401604 

 

Timings for individual modules:

Sum of individual times         ...     3928.762 sec (=  65.479 min)
GTO integral calculation        ...       16.303 sec (=   0.272 min)   0.4 %
SCF iterations                  ...     3912.459 sec (=  65.208 min)  99.6 %
                             ****ORCA TERMINATED NORMALLY****
TOTAL RUN TIME: 0 days 1 hours 5 minutes 35 seconds 59 msec
‘Li-Aldol_freqopt.hess’ -> ‘/home/rothe/Calc/Li_Path/THF/Li-Aldol/Li-Aldol_freqopt.hess’
‘Li-Aldol_freqopt.opt’ -> ‘/home/rothe/Calc/Li_Path/THF/Li-Aldol/Li-Aldol_freqopt.opt’
‘Li-Aldol_sp.cpcm’ -> ‘/home/rothe/Calc/Li_Path/THF/Li-Aldol/Li-Aldol_sp.cpcm’
‘Li-Aldol_sp.densities’ -> ‘/home/rothe/Calc/Li_Path/THF/Li-Aldol/Li-Aldol_sp.densities’
‘Li-Aldol_sp.gbw’ -> ‘/home/rothe/Calc/Li_Path/THF/Li-Aldol/Li-Aldol_sp.gbw’
‘Li-Aldol_sp.job’ -> ‘/home/rothe/Calc/Li_Path/THF/Li-Aldol/Li-Aldol_sp.job’
‘Li-Aldol_sp_property.txt’ -> ‘/home/rothe/Calc/Li_Path/THF/Li-Aldol/Li-Aldol_sp_property.txt’
