! Job execution by suborca V 5.02 !
Job started from clu.thch.uni-bonn.de, running /software/cluster/orca_5_0_2_linux_x86-64_openmpi411/orca from /software/cluster/orca_5_0_2_linux_x86-64_openmpi411 on boar230 in /tmp1/rothe/Li-Aldol_freqopt__wcD8Iz
Going to copy the following really necessary files:  

                                 *****************
                                 * O   R   C   A *
                                 *****************

                                            #,                                       
                                            ###                                      
                                            ####                                     
                                            #####                                    
                                            ######                                   
                                           ########,                                 
                                     ,,################,,,,,                         
                               ,,#################################,,                 
                          ,,##########################################,,             
                       ,#########################################, ''#####,          
                    ,#############################################,,   '####,        
                  ,##################################################,,,,####,       
                ,###########''''           ''''###############################       
              ,#####''   ,,,,##########,,,,          '''####'''          '####       
            ,##' ,,,,###########################,,,                        '##       
           ' ,,###''''                  '''############,,,                           
         ,,##''                                '''############,,,,        ,,,,,,###''
      ,#''                                            '''#######################'''  
     '                                                          ''''####''''         
             ,#######,   #######,   ,#######,      ##                                
            ,#'     '#,  ##    ##  ,#'     '#,    #''#        ######   ,####,        
            ##       ##  ##   ,#'  ##            #'  '#       #        #'  '#        
            ##       ##  #######   ##           ,######,      #####,   #    #        
            '#,     ,#'  ##    ##  '#,     ,#' ,#      #,         ##   #,  ,#        
             '#######'   ##     ##  '#######'  #'      '#     #####' # '####'        



                  #######################################################
                  #                        -***-                        #
                  #          Department of theory and spectroscopy      #
                  #    Directorship and core code : Frank Neese         #
                  #        Max Planck Institute fuer Kohlenforschung    #
                  #                Kaiser Wilhelm Platz 1               #
                  #                 D-45470 Muelheim/Ruhr               #
                  #                      Germany                        #
                  #                                                     #
                  #                  All rights reserved                #
                  #                        -***-                        #
                  #######################################################


                         Program Version 5.0.2 -  RELEASE  -


 With contributions from (in alphabetic order):
   Daniel Aravena         : Magnetic Suceptibility
   Michael Atanasov       : Ab Initio Ligand Field Theory (pilot matlab implementation)
   Alexander A. Auer      : GIAO ZORA, VPT2 properties, NMR spectrum
   Ute Becker             : Parallelization
   Giovanni Bistoni       : ED, misc. LED, open-shell LED, HFLD
   Martin Brehm           : Molecular dynamics
   Dmytro Bykov           : SCF Hessian
   Vijay G. Chilkuri      : MRCI spin determinant printing, contributions to CSF-ICE
   Dipayan Datta          : RHF DLPNO-CCSD density
   Achintya Kumar Dutta   : EOM-CC, STEOM-CC
   Dmitry Ganyushin       : Spin-Orbit,Spin-Spin,Magnetic field MRCI
   Miquel Garcia          : C-PCM and meta-GGA Hessian, CC/C-PCM, Gaussian charge scheme
   Yang Guo               : DLPNO-NEVPT2, F12-NEVPT2, CIM, IAO-localization
   Andreas Hansen         : Spin unrestricted coupled pair/coupled cluster methods
   Benjamin Helmich-Paris : MC-RPA, TRAH-SCF, COSX integrals
   Lee Huntington         : MR-EOM, pCC
   Robert Izsak           : Overlap fitted RIJCOSX, COSX-SCS-MP3, EOM
   Marcus Kettner         : VPT2
   Christian Kollmar      : KDIIS, OOCD, Brueckner-CCSD(T), CCSD density, CASPT2, CASPT2-K
   Simone Kossmann        : Meta GGA functionals, TD-DFT gradient, OOMP2, MP2 Hessian
   Martin Krupicka        : Initial AUTO-CI
   Lucas Lang             : DCDCAS
   Marvin Lechner         : AUTO-CI (C++ implementation), FIC-MRCC
   Dagmar Lenk            : GEPOL surface, SMD
   Dimitrios Liakos       : Extrapolation schemes; Compound Job, initial MDCI parallelization
   Dimitrios Manganas     : Further ROCIS development; embedding schemes
   Dimitrios Pantazis     : SARC Basis sets
   Anastasios Papadopoulos: AUTO-CI, single reference methods and gradients
   Taras Petrenko         : DFT Hessian,TD-DFT gradient, ASA, ECA, R-Raman, ABS, FL, XAS/XES, NRVS
   Peter Pinski           : DLPNO-MP2, DLPNO-MP2 Gradient
   Christoph Reimann      : Effective Core Potentials
   Marius Retegan         : Local ZFS, SOC
   Christoph Riplinger    : Optimizer, TS searches, QM/MM, DLPNO-CCSD(T), (RO)-DLPNO pert. Triples
   Tobias Risthaus        : Range-separated hybrids, TD-DFT gradient, RPA, STAB
   Michael Roemelt        : Original ROCIS implementation
   Masaaki Saitow         : Open-shell DLPNO-CCSD energy and density
   Barbara Sandhoefer     : DKH picture change effects
   Avijit Sen             : IP-ROCIS
   Kantharuban Sivalingam : CASSCF convergence, NEVPT2, FIC-MRCI
   Bernardo de Souza      : ESD, SOC TD-DFT
   Georgi Stoychev        : AutoAux, RI-MP2 NMR, DLPNO-MP2 response
   Willem Van den Heuvel  : Paramagnetic NMR
   Boris Wezisla          : Elementary symmetry handling
   Frank Wennmohs         : Technical directorship


 We gratefully acknowledge several colleagues who have allowed us to
 interface, adapt or use parts of their codes:
   Stefan Grimme, W. Hujo, H. Kruse, P. Pracht,  : VdW corrections, initial TS optimization,
                  C. Bannwarth, S. Ehlert          DFT functionals, gCP, sTDA/sTD-DF
   Ed Valeev, F. Pavosevic, A. Kumar             : LibInt (2-el integral package), F12 methods
   Garnet Chan, S. Sharma, J. Yang, R. Olivares  : DMRG
   Ulf Ekstrom                                   : XCFun DFT Library
   Mihaly Kallay                                 : mrcc  (arbitrary order and MRCC methods)
   Jiri Pittner, Ondrej Demel                    : Mk-CCSD
   Frank Weinhold                                : gennbo (NPA and NBO analysis)
   Christopher J. Cramer and Donald G. Truhlar   : smd solvation model
   Lars Goerigk                                  : TD-DFT with DH, B97 family of functionals
   V. Asgeirsson, H. Jonsson                     : NEB implementation
   FAccTs GmbH                                   : IRC, NEB, NEB-TS, DLPNO-Multilevel, CI-OPT
                                                   MM, QMMM, 2- and 3-layer-ONIOM, Crystal-QMMM,
                                                   LR-CPCM, SF, NACMEs, symmetry and pop. for TD-DFT,
                                                   nearIR, NL-DFT gradient (VV10), updates on ESD,
                                                   ML-optimized integration grids
   S Lehtola, MJT Oliveira, MAL Marques          : LibXC Library
   Liviu Ungur et al                             : ANISO software


 Your calculation uses the libint2 library for the computation of 2-el integrals
 For citations please refer to: http://libint.valeyev.net

 Your ORCA version has been built with support for libXC version: 5.1.0
 For citations please refer to: https://tddft.org/programs/libxc/

 This ORCA versions uses:
   CBLAS   interface :  Fast vector & matrix operations
   LAPACKE interface :  Fast linear algebra routines
   SCALAPACK package :  Parallel linear algebra routines
   Shared memory     :  Shared parallel matrices
   BLAS/LAPACK       :  OpenBLAS 0.3.15  USE64BITINT DYNAMIC_ARCH NO_AFFINITY Barcelona SINGLE_THREADED
        Core in use  :  Barcelona
   Copyright (c) 2011-2014, The OpenBLAS Project


Your calculation utilizes the atom-pairwise dispersion correction
with the Becke-Johnson damping scheme (D3BJ)
Cite in your paper:
S.Grimme, S.Ehrlich, L.Goerigk, J Comput Chem, (2011), 32, 1456–1465 
S.Grimme, J.Antony, S.Ehrlich and H.Krieg, J.Chem.Phys., 132, (2010), 154104 
   

================================================================================

----- Orbital basis set information -----
Your calculation utilizes the basis: def2-TZVP
   F. Weigend and R. Ahlrichs, Phys. Chem. Chem. Phys. 7, 3297 (2005).

----- AuxJ basis set information -----
Your calculation utilizes the auxiliary basis: def2/J
   F. Weigend, Phys. Chem. Chem. Phys. 8, 1057 (2006).

================================================================================
                                        WARNINGS
                       Please study these warnings very carefully!
================================================================================


WARNING: Geometry Optimization
  ===> : Switching off AutoStart
         For restart on a previous wavefunction, please use MOREAD

INFO   : the flag for use of the SHARK integral package has been found!

================================================================================
                                       INPUT FILE
================================================================================
NAME = Li-Aldol_freqopt.inp
|  1> ! TPSS D3BJ def2-TZVP RI def2/J CPCM(THF)
|  2> ! Opt numfreq Pal4
|  3> 
|  4> * xyz 0 1
|  5> C         3.08279037123496   -1.68420331416736   -1.04558207329676
|  6> C         3.04903683479157   -2.28726528726055   -2.30067089021449
|  7> C         3.94232826635219   -3.30576336524257   -2.59744366058609
|  8> C         4.86053985579340   -3.74849012963095   -1.66686173986854
|  9> C         4.90867934205586   -3.14861424001835   -0.40505706005332
| 10> C         4.02116527824321   -2.11747041253913   -0.11102120387458
| 11> H         4.04978515268376   -1.64979962710569    0.86055169468442
| 12> H         2.33971106200730   -1.97485064645362   -3.04954899234083
| 13> H         3.91160524282617   -3.76048270703082   -3.57589421919272
| 14> H         5.54994762660378   -4.53334117668894   -1.92833682805349
| 15> C         5.86595767728344   -3.54955535101117    0.64308212115278
| 16> O         2.26078003819111   -0.68270713539346   -0.63931050750773
| 17> C         1.29107627572487   -0.18684846260766   -1.54253953451290
| 18> H         1.76073801415025    0.24362928736040   -2.43142922816736
| 19> H         0.76223027934930    0.59223534296511   -0.99715977536255
| 20> H         0.58597379733724   -0.96884067098813   -1.83736681904132
| 21> C         6.62778198781331   -4.79973752571147    0.52170795869563
| 22> O         6.13096792127484   -2.77538912373247    1.57301201608193
| 23> C         8.06536865593280   -4.33561007636164   -0.04051218554715
| 24> O         8.62350888158575   -3.37746623472657    0.70378479686435
| 25> Li        7.90598907442785   -2.45071982936320    1.89308809701145
| 26> C         8.87094236640319   -5.62264699261726   -0.10722702812243
| 27> C         8.89365416560524   -6.38845365767214   -1.26611470426514
| 28> C         9.59519251999698   -6.04994998598893    0.99756656388247
| 29> C        10.33511616373799   -7.21534736489831    0.94887398815603
| 30> C        10.37691284463329   -7.96622514411109   -0.22296143657036
| 31> C         9.64196802887707   -7.54931207513094   -1.32968805423135
| 32> C        11.14049411014999   -9.24754964539094   -0.23444142203944
| 33> O        12.12441064861931   -9.41793942981380   -1.12166520041830
| 34> O        10.90008994338022  -10.14427018020447    0.54264939859515
| 35> C        12.55741380418116   -8.36983801291129   -1.98343062797573
| 36> H        12.03675519139985   -8.43754149387219   -2.93942731713745
| 37> H        13.62255269489810   -8.53661926673687   -2.13706409351087
| 38> H        12.38916944740797   -7.38869746160733   -1.53870399136575
| 39> H         9.63922222154902   -8.14190189112540   -2.23228180253593
| 40> H         8.32891783468878   -6.07001491573996   -2.13013559366394
| 41> H        10.89152967054269   -7.55043540642417    1.81146201123341
| 42> H         9.57570146762554   -5.44602166424618    1.89252514632248
| 43> H         6.19543727783055   -5.54465604307062   -0.13713922797854
| 44> H         6.83290858810607   -5.21355317399261    1.50835534519055
| 45> H         7.88617248348775   -3.98367250502511   -1.08015563121185
| 46> *
| 47> 
| 48>                          ****END OF INPUT****
================================================================================

                       *****************************
                       * Geometry Optimization Run *
                       *****************************

Geometry optimization settings:
Update method            Update   .... BFGS
Choice of coordinates    CoordSys .... Z-matrix Internals
Initial Hessian          InHess   .... Almoef's Model

Convergence Tolerances:
Energy Change            TolE     ....  5.0000e-06 Eh
Max. Gradient            TolMAXG  ....  3.0000e-04 Eh/bohr
RMS Gradient             TolRMSG  ....  1.0000e-04 Eh/bohr
Max. Displacement        TolMAXD  ....  4.0000e-03 bohr
RMS Displacement         TolRMSD  ....  2.0000e-03 bohr
Strict Convergence                ....  False
------------------------------------------------------------------------------
                        ORCA OPTIMIZATION COORDINATE SETUP
------------------------------------------------------------------------------

The optimization will be done in new redundant internal coordinates
Making redundant internal coordinates   ...  (new redundants) done
Evaluating the initial hessian          ...  (Almloef) done
Evaluating the coordinates              ...  done
Calculating the B-matrix                .... done
Calculating the G-matrix                .... done
Diagonalizing the G-matrix              .... done
Small eigenvalue found = 1.816e-03
Small eigenvalue found = 4.268e-03
Small eigenvalue found = 8.830e-03
Small eigenvalue found = 1.538e-02
Small eigenvalue found = 1.790e-02
Small eigenvalue found = 1.874e-02
Small eigenvalue found = 2.764e-02
The first mode is                       ....   91
The number of degrees of freedom        ....  117

    -----------------------------------------------------------------
                    Redundant Internal Coordinates


    -----------------------------------------------------------------
         Definition                    Initial Value    Approx d2E/dq
    -----------------------------------------------------------------
      1. B(C   1,C   0)                  1.3929         0.618257   
      2. B(C   2,C   1)                  1.3869         0.632044   
      3. B(C   3,C   2)                  1.3803         0.647570   
      4. B(C   4,C   3)                  1.3980         0.606769   
      5. B(C   5,C   4)                  1.3919         0.620442   
      6. B(C   5,C   0)                  1.3934         0.616953   
      7. B(H   6,C   5)                  1.0787         0.375430   
      8. B(H   7,C   1)                  1.0778         0.376663   
      9. B(H   8,C   2)                  1.0794         0.374415   
     10. B(H   9,C   3)                  1.0769         0.377899   
     11. B(C  10,C   4)                  1.4750         0.457161   
     12. B(O  11,C   0)                  1.3578         0.629755   
     13. B(C  12,O  11)                  1.4149         0.510626   
     14. B(H  13,C  12)                  1.0936         0.355335   
     15. B(H  14,C  12)                  1.0882         0.362544   
     16. B(H  15,C  12)                  1.0934         0.355582   
     17. B(C  16,C  10)                  1.4690         0.467351   
     18. B(O  17,C  10)                  1.2387         0.975649   
     19. B(C  18,C  16)                  1.6119         0.276529   
     20. B(O  19,C  18)                  1.3355         0.683660   
     21. B(Li 20,O  19)                  1.6698         0.971753   
     22. B(Li 20,O  17)                  1.8326         0.534212   
     23. B(C  21,C  18)                  1.5198         0.387805   
     24. B(C  22,C  21)                  1.3892         0.626536   
     25. B(C  23,C  21)                  1.3884         0.628446   
     26. B(C  24,C  23)                  1.3813         0.645071   
     27. B(C  25,C  24)                  1.3924         0.619324   
     28. B(C  26,C  25)                  1.3924         0.619290   
     29. B(C  26,C  22)                  1.3826         0.641993   
     30. B(C  27,C  25)                  1.4916         0.430114   
     31. B(O  28,C  27)                  1.3358         0.682953   
     32. B(O  29,C  27)                  1.2107         1.081314   
     33. B(C  30,O  28)                  1.4243         0.493335   
     34. B(H  31,C  30)                  1.0907         0.359192   
     35. B(H  32,C  30)                  1.0890         0.361414   
     36. B(H  33,C  30)                  1.0903         0.359721   
     37. B(H  34,C  26)                  1.0797         0.373927   
     38. B(H  35,C  22)                  1.0802         0.373281   
     39. B(H  36,C  24)                  1.0798         0.373868   
     40. B(H  37,C  23)                  1.0798         0.373791   
     41. B(H  38,C  16)                  1.0844         0.367596   
     42. B(H  39,C  16)                  1.0894         0.360894   
     43. B(H  40,C  18)                  1.1121         0.331985   
     44. A(C   1,C   0,C   5)          119.0807         0.433462   
     45. A(C   5,C   0,O  11)          115.8704         0.432055   
     46. A(C   1,C   0,O  11)          125.0489         0.432219   
     47. A(C   2,C   1,H   7)          119.2166         0.356772   
     48. A(C   0,C   1,H   7)          121.1018         0.355439   
     49. A(C   0,C   1,C   2)          119.6816         0.435351   
     50. A(C   3,C   2,H   8)          119.6678         0.357883   
     51. A(C   1,C   2,C   3)          121.3176         0.439002   
     52. A(C   1,C   2,H   8)          119.0141         0.356410   
     53. A(C   2,C   3,C   4)          119.5913         0.435784   
     54. A(C   4,C   3,H   9)          120.6544         0.354507   
     55. A(C   2,C   3,H   9)          119.7332         0.358447   
     56. A(C   5,C   4,C  10)          117.7146         0.411124   
     57. A(C   3,C   4,C  10)          123.1671         0.409503   
     58. A(C   3,C   4,C   5)          119.1175         0.432441   
     59. A(C   0,C   5,C   4)          121.2020         0.433737   
     60. A(C   0,C   5,H   6)          119.1543         0.355114   
     61. A(C   4,C   5,H   6)          119.6403         0.355454   
     62. A(C  16,C  10,O  17)          118.8789         0.444711   
     63. A(C   4,C  10,O  17)          120.1609         0.442941   
     64. A(C   4,C  10,C  16)          120.6086         0.391113   
     65. A(C   0,O  11,C  12)          118.8401         0.414973   
     66. A(H  14,C  12,H  15)          109.4982         0.290572   
     67. A(O  11,C  12,H  15)          111.3112         0.338774   
     68. A(H  13,C  12,H  14)          109.5276         0.290540   
     69. A(O  11,C  12,H  13)          111.2522         0.338735   
     70. A(H  13,C  12,H  15)          109.8333         0.289658   
     71. A(O  11,C  12,H  14)          105.3100         0.339872   
     72. A(H  38,C  16,H  39)          111.3705         0.291884   
     73. A(C  18,C  16,H  39)          104.9124         0.308941   
     74. A(C  18,C  16,H  38)          109.9662         0.309858   
     75. A(C  10,C  16,C  18)          104.2579         0.358621   
     76. A(C  10,C  16,H  39)          110.2480         0.336678   
     77. A(C  10,C  16,H  38)          115.3436         0.337712   
     78. A(C  10,O  17,Li 20)          116.6835         0.492979   
     79. A(C  16,C  18,O  19)          112.6393         0.380445   
     80. A(C  21,C  18,H  40)          108.2011         0.321992   
     81. A(O  19,C  18,H  40)          111.1799         0.351714   
     82. A(O  19,C  18,C  21)          114.2363         0.403629   
     83. A(C  16,C  18,H  40)          105.8713         0.304823   
     84. A(C  16,C  18,C  21)          104.1347         0.347472   
     85. A(C  18,O  19,Li 20)          127.9925         0.515788   
     86. A(O  17,Li 20,O  19)          101.1558         0.537407   
     87. A(C  22,C  21,C  23)          119.0519         0.435947   
     88. A(C  18,C  21,C  23)          120.1447         0.400250   
     89. A(C  18,C  21,C  22)          120.8033         0.400036   
     90. A(C  21,C  22,H  35)          119.7479         0.355697   
     91. A(C  26,C  22,H  35)          119.5834         0.357173   
     92. A(C  21,C  22,C  26)          120.6661         0.437626   
     93. A(C  21,C  23,H  37)          118.5512         0.355964   
     94. A(C  24,C  23,H  37)          120.7131         0.357546   
     95. A(C  21,C  23,C  24)          120.7326         0.438244   
     96. A(C  25,C  24,H  36)          119.3072         0.355094   
     97. A(C  23,C  24,H  36)          120.6433         0.357559   
     98. A(C  23,C  24,C  25)          120.0480         0.437090   
     99. A(C  26,C  25,C  27)          121.4183         0.406574   
    100. A(C  24,C  25,C  27)          119.0177         0.406578   
    101. A(C  24,C  25,C  26)          119.4467         0.433891   
    102. A(C  25,C  26,H  34)          120.0952         0.355100   
    103. A(C  22,C  26,H  34)          119.8586         0.357278   
    104. A(C  22,C  26,C  25)          120.0347         0.436709   
    105. A(O  28,C  27,O  29)          118.5619         0.482464   
    106. A(C  25,C  27,O  29)          121.9818         0.446309   
    107. A(C  25,C  27,O  28)          119.4558         0.411015   
    108. A(C  27,O  28,C  30)          122.1363         0.418433   
    109. A(H  32,C  30,H  33)          110.2607         0.290958   
    110. A(H  31,C  30,H  33)          109.8600         0.290676   
    111. A(O  28,C  30,H  33)          111.6227         0.337484   
    112. A(H  31,C  30,H  32)          109.4961         0.290890   
    113. A(O  28,C  30,H  32)          105.6646         0.337748   
    114. A(O  28,C  30,H  31)          109.8477         0.337401   
    115. D(H   7,C   1,C   0,O  11)      0.2143         0.026441   
    116. D(C   2,C   1,C   0,O  11)   -179.8887         0.026441   
    117. D(H   7,C   1,C   0,C   5)   -179.7316         0.026441   
    118. D(C   2,C   1,C   0,C   5)      0.1654         0.026441   
    119. D(H   8,C   2,C   1,C   0)   -179.5444         0.027710   
    120. D(H   8,C   2,C   1,H   7)      0.3545         0.027710   
    121. D(C   3,C   2,C   1,H   7)   -179.3862         0.027710   
    122. D(C   3,C   2,C   1,C   0)      0.7148         0.027710   
    123. D(H   9,C   3,C   2,C   1)   -179.2950         0.029183   
    124. D(H   9,C   3,C   2,H   8)      0.9659         0.029183   
    125. D(C   4,C   3,C   2,H   8)    179.3077         0.029183   
    126. D(C   4,C   3,C   2,C   1)     -0.9532         0.029183   
    127. D(C  10,C   4,C   3,C   2)   -179.3662         0.025412   
    128. D(C   5,C   4,C   3,C   2)      0.3080         0.025412   
    129. D(C  10,C   4,C   3,H   9)     -1.0401         0.025412   
    130. D(C   5,C   4,C   3,H   9)    178.6342         0.025412   
    131. D(H   6,C   5,C   4,C  10)     -0.4142         0.026640   
    132. D(H   6,C   5,C   4,C   3)    179.8939         0.026640   
    133. D(C   0,C   5,C   4,C  10)   -179.7390         0.026640   
    134. D(H   6,C   5,C   0,O  11)     -0.0841         0.026323   
    135. D(H   6,C   5,C   0,C   1)    179.8667         0.026323   
    136. D(C   0,C   5,C   4,C   3)      0.5690         0.026640   
    137. D(C   4,C   5,C   0,C   1)     -0.8052         0.026323   
    138. D(C   4,C   5,C   0,O  11)    179.2440         0.026323   
    139. D(O  17,C  10,C   4,C   5)    -20.0920         0.014239   
    140. D(O  17,C  10,C   4,C   3)    159.5865         0.014239   
    141. D(C  16,C  10,C   4,C   5)    166.7921         0.014239   
    142. D(C  16,C  10,C   4,C   3)    -13.5294         0.014239   
    143. D(C  12,O  11,C   0,C   5)    179.4889         0.029164   
    144. D(C  12,O  11,C   0,C   1)     -0.4585         0.029164   
    145. D(H  13,C  12,O  11,C   0)    -61.6482         0.020643   
    146. D(H  15,C  12,O  11,C   0)     61.2047         0.020643   
    147. D(H  14,C  12,O  11,C   0)    179.7762         0.020643   
    148. D(H  39,C  16,C  10,C   4)   -149.0901         0.016102   
    149. D(H  38,C  16,C  10,O  17)    164.8979         0.016102   
    150. D(H  38,C  16,C  10,C   4)    -21.8992         0.016102   
    151. D(C  18,C  16,C  10,O  17)    -74.4254         0.016102   
    152. D(H  39,C  16,C  10,O  17)     37.7070         0.016102   
    153. D(C  18,C  16,C  10,C   4)     98.7776         0.016102   
    154. D(Li 20,O  17,C  10,C  16)     44.9238         0.077395   
    155. D(Li 20,O  17,C  10,C   4)   -128.3104         0.077395   
    156. D(H  40,C  18,C  16,H  39)    175.6614         0.006537   
    157. D(H  40,C  18,C  16,H  38)     55.7959         0.006537   
    158. D(H  40,C  18,C  16,C  10)    -68.4131         0.006537   
    159. D(C  21,C  18,C  16,H  39)     61.6781         0.006537   
    160. D(C  21,C  18,C  16,H  38)    -58.1874         0.006537   
    161. D(C  21,C  18,C  16,C  10)    177.6036         0.006537   
    162. D(O  19,C  18,C  16,H  39)    -62.6330         0.006537   
    163. D(O  19,C  18,C  16,H  38)    177.5015         0.006537   
    164. D(O  19,C  18,C  16,C  10)     53.2925         0.006537   
    165. D(Li 20,O  19,C  18,H  40)    105.6761         0.038498   
    166. D(Li 20,O  19,C  18,C  21)   -131.5181         0.038498   
    167. D(Li 20,O  19,C  18,C  16)    -12.9685         0.038498   
    168. D(O  17,Li 20,O  19,C  18)    -14.5722         0.008885   
    169. D(O  19,Li 20,O  17,C  10)      0.7244         0.003617   
    170. D(C  23,C  21,C  18,H  40)    159.2970         0.011196   
    171. D(C  23,C  21,C  18,O  19)     34.8870         0.011196   
    172. D(C  23,C  21,C  18,C  16)    -88.3896         0.011196   
    173. D(C  22,C  21,C  18,H  40)    -20.8161         0.011196   
    174. D(C  22,C  21,C  18,O  19)   -145.2261         0.011196   
    175. D(C  22,C  21,C  18,C  16)     91.4973         0.011196   
    176. D(C  26,C  22,C  21,C  23)     -0.9960         0.027198   
    177. D(C  26,C  22,C  21,C  18)    179.1159         0.027198   
    178. D(H  35,C  22,C  21,C  23)    179.5884         0.027198   
    179. D(H  35,C  22,C  21,C  18)     -0.2997         0.027198   
    180. D(H  37,C  23,C  21,C  22)    179.7058         0.027375   
    181. D(H  37,C  23,C  21,C  18)     -0.4053         0.027375   
    182. D(C  24,C  23,C  21,C  22)      0.3312         0.027375   
    183. D(C  24,C  23,C  21,C  18)   -179.7800         0.027375   
    184. D(H  36,C  24,C  23,H  37)      1.1290         0.028942   
    185. D(H  36,C  24,C  23,C  21)   -179.5099         0.028942   
    186. D(C  25,C  24,C  23,H  37)   -178.4104         0.028942   
    187. D(C  25,C  24,C  23,C  21)      0.9506         0.028942   
    188. D(C  27,C  25,C  24,H  36)      2.7689         0.026538   
    189. D(C  27,C  25,C  24,C  23)   -177.6855         0.026538   
    190. D(C  26,C  25,C  24,H  36)    178.8879         0.026538   
    191. D(C  26,C  25,C  24,C  23)     -1.5665         0.026538   
    192. D(H  34,C  26,C  25,C  27)     -1.8324         0.026535   
    193. D(H  34,C  26,C  25,C  24)   -177.8554         0.026535   
    194. D(C  22,C  26,C  25,C  27)    176.9314         0.026535   
    195. D(C  22,C  26,C  25,C  24)      0.9085         0.026535   
    196. D(H  34,C  26,C  22,H  35)     -1.4412         0.028648   
    197. D(H  34,C  26,C  22,C  21)    179.1423         0.028648   
    198. D(C  25,C  26,C  22,H  35)    179.7920         0.028648   
    199. D(C  25,C  26,C  22,C  21)      0.3755         0.028648   
    200. D(O  29,C  27,C  25,C  26)   -119.0090         0.012640   
    201. D(O  29,C  27,C  25,C  24)     57.0306         0.012640   
    202. D(O  28,C  27,C  25,C  26)     61.2608         0.012640   
    203. D(O  28,C  27,C  25,C  24)   -122.6996         0.012640   
    204. D(C  30,O  28,C  27,O  29)   -173.8338         0.034768   
    205. D(C  30,O  28,C  27,C  25)      5.9057         0.034768   
    206. D(H  33,C  30,O  28,C  27)     27.9470         0.019226   
    207. D(H  32,C  30,O  28,C  27)    147.8168         0.019226   
    208. D(H  31,C  30,O  28,C  27)    -94.1666         0.019226   
    -----------------------------------------------------------------

Number of atoms                         .... 41
Number of degrees of freedom            .... 208

         *************************************************************
         *                GEOMETRY OPTIMIZATION CYCLE   1            *
         *************************************************************
---------------------------------
CARTESIAN COORDINATES (ANGSTROEM)
---------------------------------
  C      3.082790   -1.684203   -1.045582
  C      3.049037   -2.287265   -2.300671
  C      3.942328   -3.305763   -2.597444
  C      4.860540   -3.748490   -1.666862
  C      4.908679   -3.148614   -0.405057
  C      4.021165   -2.117470   -0.111021
  H      4.049785   -1.649800    0.860552
  H      2.339711   -1.974851   -3.049549
  H      3.911605   -3.760483   -3.575894
  H      5.549948   -4.533341   -1.928337
  C      5.865958   -3.549555    0.643082
  O      2.260780   -0.682707   -0.639311
  C      1.291076   -0.186848   -1.542540
  H      1.760738    0.243629   -2.431429
  H      0.762230    0.592235   -0.997160
  H      0.585974   -0.968841   -1.837367
  C      6.627782   -4.799738    0.521708
  O      6.130968   -2.775389    1.573012
  C      8.065369   -4.335610   -0.040512
  O      8.623509   -3.377466    0.703785
  Li     7.905989   -2.450720    1.893088
  C      8.870942   -5.622647   -0.107227
  C      8.893654   -6.388454   -1.266115
  C      9.595193   -6.049950    0.997567
  C     10.335116   -7.215347    0.948874
  C     10.376913   -7.966225   -0.222961
  C      9.641968   -7.549312   -1.329688
  C     11.140494   -9.247550   -0.234441
  O     12.124411   -9.417939   -1.121665
  O     10.900090  -10.144270    0.542649
  C     12.557414   -8.369838   -1.983431
  H     12.036755   -8.437541   -2.939427
  H     13.622553   -8.536619   -2.137064
  H     12.389169   -7.388697   -1.538704
  H      9.639222   -8.141902   -2.232282
  H      8.328918   -6.070015   -2.130136
  H     10.891530   -7.550435    1.811462
  H      9.575701   -5.446022    1.892525
  H      6.195437   -5.544656   -0.137139
  H      6.832909   -5.213553    1.508355
  H      7.886172   -3.983673   -1.080156

----------------------------
CARTESIAN COORDINATES (A.U.)
----------------------------
  NO LB      ZA    FRAG     MASS         X           Y           Z
   0 C     6.0000    0    12.011    5.825630   -3.182683   -1.975864
   1 C     6.0000    0    12.011    5.761845   -4.322305   -4.347638
   2 C     6.0000    0    12.011    7.449921   -6.246987   -4.908457
   3 C     6.0000    0    12.011    9.185089   -7.083620   -3.149912
   4 C     6.0000    0    12.011    9.276060   -5.950019   -0.765447
   5 C     6.0000    0    12.011    7.598901   -4.001439   -0.209800
   6 H     1.0000    0     1.008    7.652985   -3.117669    1.626207
   7 H     1.0000    0     1.008    4.421413   -3.731927   -5.762812
   8 H     1.0000    0     1.008    7.391863   -7.106282   -6.757461
   9 H     1.0000    0     1.008   10.487881   -8.566773   -3.644028
  10 C     6.0000    0    12.011   11.085054   -6.707688    1.215249
  11 O     8.0000    0    15.999    4.272255   -1.290130   -1.208122
  12 C     6.0000    0    12.011    2.439781   -0.353092   -2.914977
  13 H     1.0000    0     1.008    3.327313    0.460393   -4.594735
  14 H     1.0000    0     1.008    1.440406    1.119163   -1.884359
  15 H     1.0000    0     1.008    1.107330   -1.830844   -3.472120
  16 C     6.0000    0    12.011   12.524693   -9.070189    0.985885
  17 O     8.0000    0    15.999   11.585850   -5.244725    2.972562
  18 C     6.0000    0    12.011   15.241338   -8.193116   -0.076557
  19 O     8.0000    0    15.999   16.296070   -6.382486    1.329961
  20 Li    3.0000    0     6.941   14.940154   -4.631189    3.577418
  21 C     6.0000    0    12.011   16.763652  -10.625263   -0.202630
  22 C     6.0000    0    12.011   16.806571  -12.072428   -2.392610
  23 C     6.0000    0    12.011   18.132286  -11.432749    1.885128
  24 C     6.0000    0    12.011   19.530539  -13.635030    1.793112
  25 C     6.0000    0    12.011   19.609523  -15.053984   -0.421336
  26 C     6.0000    0    12.011   18.220679  -14.266132   -2.512746
  27 C     6.0000    0    12.011   21.052483  -17.475336   -0.443030
  28 O     8.0000    0    15.999   22.911816  -17.797326   -2.119640
  29 O     8.0000    0    15.999   20.598185  -19.169892    1.025459
  30 C     6.0000    0    12.011   23.730073  -15.816702   -3.748141
  31 H     1.0000    0     1.008   22.746171  -15.944643   -5.554713
  32 H     1.0000    0     1.008   25.742894  -16.131873   -4.038466
  33 H     1.0000    0     1.008   23.412137  -13.962615   -2.907729
  34 H     1.0000    0     1.008   18.215490  -15.385965   -4.218401
  35 H     1.0000    0     1.008   15.739374  -11.470666   -4.025373
  36 H     1.0000    0     1.008   20.582008  -14.268255    3.423167
  37 H     1.0000    0     1.008   18.095453  -10.291489    3.576354
  38 H     1.0000    0     1.008   11.707680  -10.477881   -0.259156
  39 H     1.0000    0     1.008   12.912326   -9.852188    2.850379
  40 H     1.0000    0     1.008   14.902706   -7.528050   -2.041198

--------------------------------
INTERNAL COORDINATES (ANGSTROEM)
--------------------------------
 C      0   0   0     0.000000000000     0.00000000     0.00000000
 C      1   0   0     1.392864308885     0.00000000     0.00000000
 C      2   1   0     1.386860481010   119.68156933     0.00000000
 C      3   2   1     1.380254404831   121.31756935     0.71479491
 C      4   3   2     1.397969793336   119.59133492   359.04679523
 C      5   4   3     1.391903693196   119.11749681     0.30799632
 H      6   5   4     1.078651453425   119.64032779   179.89386475
 H      2   1   3     1.077758958010   121.10178439   180.10299516
 H      3   2   1     1.079388289546   119.01411710   180.45555478
 H      4   3   2     1.076867430217   119.73316836   180.70503773
 C      5   4   3     1.475036043207   123.16709775   180.63378233
 O      1   2   3     1.357848360053   125.04887390   180.11126792
 C     12   1   2     1.414928933036   118.84007154   359.54145349
 H     13  12   1     1.093626137784   111.25224627   298.35178121
 H     13  12   1     1.088158419385   105.31003126   179.77615923
 H     13  12   1     1.093436987987   111.31115180    61.20472715
 C     11   5   4     1.469034865946   120.60857043   346.47063962
 O     11   5   4     1.238682116752   120.16086977   159.58650700
 C     17  11   5     1.611881263675   104.25785955    98.77756423
 O     19  17  11     1.335491718725   112.63927679    53.29251107
 Li    20  19  17     1.669771215843   127.99252135   347.03145532
 C     19  17  11     1.519823640106   104.13471015   177.60364618
 C     22  19  17     1.389243074477   120.80325069    91.49726460
 C     22  19  17     1.388414568513   120.14473219   271.61037207
 C     24  22  19     1.381306995663   120.73264779   180.22002974
 C     25  24  22     1.392394579310   120.04799224     0.95060475
 C     23  22  19     1.382608937544   120.66609408   179.11587720
 C     26  25  24     1.491636891705   119.01772661   182.31451547
 O     28  26  25     1.335773358856   119.45579385   237.30042281
 O     28  26  25     1.210690722055   121.98181542    57.03060926
 C     29  28  26     1.424306134570   122.13625058     5.90566028
 H     31  29  28     1.090687316368   109.84774746   265.83341153
 H     31  29  28     1.089008762535   105.66460211   147.81675277
 H     31  29  28     1.090286534040   111.62274565    27.94698911
 H     27  23  22     1.079743350967   119.85862483   179.14230596
 H     23  22  19     1.080214077458   119.74790349   359.70029979
 H     25  24  22     1.079786128678   120.64326088   180.49007299
 H     24  22  19     1.079842665951   118.55124943   359.59465346
 H     17  11   5     1.084391608757   115.34357843   338.10083822
 H     17  11   5     1.089400467316   110.24799538   210.90992581
 H     19  17  11     1.112128507166   105.87134869   291.58694774

---------------------------
INTERNAL COORDINATES (A.U.)
---------------------------
 C      0   0   0     0.000000000000     0.00000000     0.00000000
 C      1   0   0     2.632132085506     0.00000000     0.00000000
 C      2   1   0     2.620786495067   119.68156933     0.00000000
 C      3   2   1     2.608302820270   121.31756935     0.71479491
 C      4   3   2     2.641780052899   119.59133492   359.04679523
 C      5   4   3     2.630316784934   119.11749681     0.30799632
 H      6   5   4     2.038355840929   119.64032779   179.89386475
 H      2   1   3     2.036669269019   121.10178439   180.10299516
 H      3   2   1     2.039748259403   119.01411710   180.45555478
 H      4   3   2     2.034984525650   119.73316836   180.70503773
 C      5   4   3     2.787414159324   123.16709775   180.63378233
 O      1   2   3     2.565961531894   125.04887390   180.11126792
 C     12   1   2     2.673828182400   118.84007154   359.54145349
 H     13  12   1     2.066653893309   111.25224627   298.35178121
 H     13  12   1     2.056321402959   105.31003126   179.77615923
 H     13  12   1     2.066296451996   111.31115180    61.20472715
 C     11   5   4     2.776073577820   120.60857043   346.47063962
 O     11   5   4     2.340769967648   120.16086977   159.58650700
 C     17  11   5     3.046014148745   104.25785955    98.77756423
 O     19  17  11     2.523713602509   112.63927679    53.29251107
 Li    20  19  17     3.155410304248   127.99252135   347.03145532
 C     19  17  11     2.872050451660   104.13471015   177.60364618
 C     22  19  17     2.625288944207   120.80325069    91.49726460
 C     22  19  17     2.623723294837   120.14473219   271.61037207
 C     24  22  19     2.610291928672   120.73264779   180.22002974
 C     25  24  22     2.631244425253   120.04799224     0.95060475
 C     23  22  19     2.612752242269   120.66609408   179.11587720
 C     26  25  24     2.818785216575   119.01772661   182.31451547
 O     28  26  25     2.524245825226   119.45579385   237.30042281
 O     28  26  25     2.287873897564   121.98181542    57.03060926
 C     29  28  26     2.691548525201   122.13625058     5.90566028
 H     31  29  28     2.061100325677   109.84774746   265.83341153
 H     31  29  28     2.057928318631   105.66460211   147.81675277
 H     31  29  28     2.060342956838   111.62274565    27.94698911
 H     27  23  22     2.040419228249   119.85862483   179.14230596
 H     23  22  19     2.041308772401   119.74790349   359.70029979
 H     25  24  22     2.040500066408   120.64326088   180.49007299
 H     24  22  19     2.040606906371   118.55124943   359.59465346
 H     17  11   5     2.049203162473   115.34357843   338.10083822
 H     17  11   5     2.058668533392   110.24799538   210.90992581
 H     19  17  11     2.101618304270   105.87134869   291.58694774

---------------------
BASIS SET INFORMATION
---------------------
There are 4 groups of distinct atoms

 Group   1 Type C   : 11s6p2d1f contracted to 5s3p2d1f pattern {62111/411/11/1}
 Group   2 Type H   : 5s1p contracted to 3s1p pattern {311/1}
 Group   3 Type O   : 11s6p2d1f contracted to 5s3p2d1f pattern {62111/411/11/1}
 Group   4 Type Li  : 11s3p contracted to 5s3p pattern {62111/111}

Atom   0C    basis set group =>   1
Atom   1C    basis set group =>   1
Atom   2C    basis set group =>   1
Atom   3C    basis set group =>   1
Atom   4C    basis set group =>   1
Atom   5C    basis set group =>   1
Atom   6H    basis set group =>   2
Atom   7H    basis set group =>   2
Atom   8H    basis set group =>   2
Atom   9H    basis set group =>   2
Atom  10C    basis set group =>   1
Atom  11O    basis set group =>   3
Atom  12C    basis set group =>   1
Atom  13H    basis set group =>   2
Atom  14H    basis set group =>   2
Atom  15H    basis set group =>   2
Atom  16C    basis set group =>   1
Atom  17O    basis set group =>   3
Atom  18C    basis set group =>   1
Atom  19O    basis set group =>   3
Atom  20Li   basis set group =>   4
Atom  21C    basis set group =>   1
Atom  22C    basis set group =>   1
Atom  23C    basis set group =>   1
Atom  24C    basis set group =>   1
Atom  25C    basis set group =>   1
Atom  26C    basis set group =>   1
Atom  27C    basis set group =>   1
Atom  28O    basis set group =>   3
Atom  29O    basis set group =>   3
Atom  30C    basis set group =>   1
Atom  31H    basis set group =>   2
Atom  32H    basis set group =>   2
Atom  33H    basis set group =>   2
Atom  34H    basis set group =>   2
Atom  35H    basis set group =>   2
Atom  36H    basis set group =>   2
Atom  37H    basis set group =>   2
Atom  38H    basis set group =>   2
Atom  39H    basis set group =>   2
Atom  40H    basis set group =>   2
---------------------------------
AUXILIARY/J BASIS SET INFORMATION
---------------------------------
There are 4 groups of distinct atoms

 Group   1 Type C   : 12s5p4d2f1g contracted to 6s4p3d1f1g pattern {711111/2111/211/2/1}
 Group   2 Type H   : 5s2p1d contracted to 3s1p1d pattern {311/2/1}
 Group   3 Type O   : 12s5p4d2f1g contracted to 6s4p3d1f1g pattern {711111/2111/211/2/1}
 Group   4 Type Li  : 12s5p4d2f1g contracted to 6s4p3d1f1g pattern {711111/2111/211/2/1}

Atom   0C    basis set group =>   1
Atom   1C    basis set group =>   1
Atom   2C    basis set group =>   1
Atom   3C    basis set group =>   1
Atom   4C    basis set group =>   1
Atom   5C    basis set group =>   1
Atom   6H    basis set group =>   2
Atom   7H    basis set group =>   2
Atom   8H    basis set group =>   2
Atom   9H    basis set group =>   2
Atom  10C    basis set group =>   1
Atom  11O    basis set group =>   3
Atom  12C    basis set group =>   1
Atom  13H    basis set group =>   2
Atom  14H    basis set group =>   2
Atom  15H    basis set group =>   2
Atom  16C    basis set group =>   1
Atom  17O    basis set group =>   3
Atom  18C    basis set group =>   1
Atom  19O    basis set group =>   3
Atom  20Li   basis set group =>   4
Atom  21C    basis set group =>   1
Atom  22C    basis set group =>   1
Atom  23C    basis set group =>   1
Atom  24C    basis set group =>   1
Atom  25C    basis set group =>   1
Atom  26C    basis set group =>   1
Atom  27C    basis set group =>   1
Atom  28O    basis set group =>   3
Atom  29O    basis set group =>   3
Atom  30C    basis set group =>   1
Atom  31H    basis set group =>   2
Atom  32H    basis set group =>   2
Atom  33H    basis set group =>   2
Atom  34H    basis set group =>   2
Atom  35H    basis set group =>   2
Atom  36H    basis set group =>   2
Atom  37H    basis set group =>   2
Atom  38H    basis set group =>   2
Atom  39H    basis set group =>   2
Atom  40H    basis set group =>   2


           ************************************************************
           *        Program running with 4 parallel MPI-processes     *
           *              working on a common directory               *
           ************************************************************
------------------------------------------------------------------------------
                           ORCA GTO INTEGRAL CALCULATION
                           -- RI-GTO INTEGRALS CHOSEN --
------------------------------------------------------------------------------
------------------------------------------------------------------------------
                   ___                                                        
                  /   \      - P O W E R E D   B Y -                         
                 /     \                                                     
                 |  |  |   _    _      __       _____    __    __             
                 |  |  |  | |  | |    /  \     |  _  \  |  |  /  |          
                  \  \/   | |  | |   /    \    | | | |  |  | /  /          
                 / \  \   | |__| |  /  /\  \   | |_| |  |  |/  /          
                |  |  |   |  __  | /  /__\  \  |    /   |      \           
                |  |  |   | |  | | |   __   |  |    \   |  |\   \          
                \     /   | |  | | |  |  |  |  | |\  \  |  | \   \       
                 \___/    |_|  |_| |__|  |__|  |_| \__\ |__|  \__/        
                                                                              
                      - O R C A' S   B I G   F R I E N D -                    
                                      &                                       
                       - I N T E G R A L  F E E D E R -                       
                                                                              
 v1 FN, 2020, v2 2021                                                         
------------------------------------------------------------------------------


Reading SHARK input file Li-Aldol_freqopt.SHARKINP.tmp ... ok
----------------------
SHARK INTEGRAL PACKAGE
----------------------

Number of atoms                             ...     41
Number of basis functions                   ...    829
Number of shells                            ...    329
Maximum angular momentum                    ...      3
Integral batch strategy                     ... SHARK/LIBINT Hybrid
RI-J (if used) integral strategy            ... SPLIT-RIJ (Revised 2003 algorithm where possible)
Printlevel                                  ...      1
Contraction scheme used                     ... SEGMENTED contraction
Coulomb Range Separation                    ... NOT USED
Exchange Range Separation                   ... NOT USED
Finite Nucleus Model                        ... NOT USED
Auxiliary Coulomb fitting basis             ... AVAILABLE
   # of basis functions in Aux-J            ...   1363
   # of shells in Aux-J                     ...    445
   Maximum angular momentum in Aux-J        ...      4
Auxiliary J/K fitting basis                 ... NOT available
Auxiliary Correlation fitting basis         ... NOT available
Auxiliary 'external' fitting basis          ... NOT available
Integral threshold                          ...     2.500000e-11
Primitive cut-off                           ...     2.500000e-12
Primitive pair pre-selection threshold      ...     2.500000e-12

Calculating pre-screening integrals         ... done (  0.3 sec) Dimension = 329
Organizing shell pair data                  ... done (  0.7 sec)
Shell pair information
Total number of shell pairs                 ...     54285
Shell pairs after pre-screening             ...     32920
Total number of primitive shell pairs       ...    166749
Primitive shell pairs kept                  ...     67605
          la=0 lb=0:   8607 shell pairs
          la=1 lb=0:   9681 shell pairs
          la=1 lb=1:   2747 shell pairs
          la=2 lb=0:   4568 shell pairs
          la=2 lb=1:   2594 shell pairs
          la=2 lb=2:    626 shell pairs
          la=3 lb=0:   2148 shell pairs
          la=3 lb=1:   1241 shell pairs
          la=3 lb=2:    562 shell pairs
          la=3 lb=3:    146 shell pairs

Calculating one electron integrals          ... done (  0.2 sec)
Calculating RI/J V-Matrix + Cholesky decomp.... done (  0.3 sec)
Calculating Nuclear repulsion               ... done (  0.0 sec) ENN=   1814.510852888433 Eh

SHARK setup successfully completed in   2.5 seconds

Maximum memory used throughout the entire GTOINT-calculation: 54.5 MB


           ************************************************************
           *        Program running with 4 parallel MPI-processes     *
           *              working on a common directory               *
           ************************************************************
-------------------------------------------------------------------------------
                                 ORCA SCF
-------------------------------------------------------------------------------

------------
SCF SETTINGS
------------
Hamiltonian:
 Density Functional     Method          .... DFT(GTOs)
 Exchange Functional    Exchange        .... TPSS
 Correlation Functional Correlation     .... TPSS
 LDA part of GGA corr.  LDAOpt          .... PW91-LDA
 Gradients option       PostSCFGGA      .... off
   Density functional embedding theory  .... OFF
   NL short-range parameter             ....  5.000000
 RI-approximation to the Coulomb term is turned on
   Number of AuxJ basis functions       .... 1363


General Settings:
 Integral files         IntName         .... Li-Aldol_freqopt
 Hartree-Fock type      HFTyp           .... RHF
 Total Charge           Charge          ....    0
 Multiplicity           Mult            ....    1
 Number of Electrons    NEL             ....  168
 Basis Dimension        Dim             ....  829
 Nuclear Repulsion      ENuc            ....   1814.5108528884 Eh

Convergence Acceleration:
 DIIS                   CNVDIIS         .... on
   Start iteration      DIISMaxIt       ....    12
   Startup error        DIISStart       ....  0.200000
   # of expansion vecs  DIISMaxEq       ....     5
   Bias factor          DIISBfac        ....   1.050
   Max. coefficient     DIISMaxC        ....  10.000
 Trust-Rad. Augm. Hess. CNVTRAH         .... auto
   Auto Start mean grad. ratio tolernc. ....  1.125000
   Auto Start start iteration           ....    20
   Auto Start num. interpolation iter.  ....    10
   Max. Number of Micro iterations      ....    16
   Max. Number of Macro iterations      .... Maxiter - #DIIS iter
   Number of Davidson start vectors     ....     2
   Converg. threshold I  (grad. norm)   ....   1.000e-05
   Converg. threshold II (energy diff.) ....   1.000e-08
   Grad. Scal. Fac. for Micro threshold ....   0.100
   Minimum threshold for Micro iter.    ....   0.010
   NR start threshold (gradient norm)   ....   0.001
   Initial trust radius                 ....   0.400
   Minimum AH scaling param. (alpha)    ....   1.000
   Maximum AH scaling param. (alpha)    .... 1000.000
   Orbital update algorithm             .... Taylor
   White noise on init. David. guess    .... on
   Maximum white noise                  ....   0.010
   Quad. conv. algorithm                .... NR
 SOSCF                  CNVSOSCF        .... on
   Start iteration      SOSCFMaxIt      ....   150
   Startup grad/error   SOSCFStart      ....  0.003300
 Level Shifting         CNVShift        .... on
   Level shift para.    LevelShift      ....    0.2500
   Turn off err/grad.   ShiftErr        ....    0.0010
 Zerner damping         CNVZerner       .... off
 Static damping         CNVDamp         .... on
   Fraction old density DampFac         ....    0.7000
   Max. Damping (<1)    DampMax         ....    0.9800
   Min. Damping (>=0)   DampMin         ....    0.0000
   Turn off err/grad.   DampErr         ....    0.1000
 Fernandez-Rico         CNVRico         .... off

SCF Procedure:
 Maximum # iterations   MaxIter         ....   125
 SCF integral mode      SCFMode         .... Direct
   Integral package                     .... SHARK and LIBINT hybrid scheme
 Reset frequency        DirectResetFreq ....    20
 Integral Threshold     Thresh          ....  2.500e-11 Eh
 Primitive CutOff       TCut            ....  2.500e-12 Eh

Convergence Tolerance:
 Convergence Check Mode ConvCheckMode   .... Total+1el-Energy
 Convergence forced     ConvForced      .... 0
 Energy Change          TolE            ....  1.000e-08 Eh
 1-El. energy change                    ....  1.000e-05 Eh
 Orbital Gradient       TolG            ....  1.000e-05
 Orbital Rotation angle TolX            ....  1.000e-05
 DIIS Error             TolErr          ....  5.000e-07


Diagonalization of the overlap matrix:
Smallest eigenvalue                        ... 6.207e-06
Time for diagonalization                   ...    0.555 sec
Threshold for overlap eigenvalues          ... 1.000e-08
Number of eigenvalues below threshold      ... 0
Time for construction of square roots      ...    0.341 sec
Total time needed                          ...    0.903 sec

Time for model grid setup =    1.523 sec

------------------------------
INITIAL GUESS: MODEL POTENTIAL
------------------------------
Loading Hartree-Fock densities                     ... done
Calculating cut-offs                               ... done
Initializing the effective Hamiltonian             ... done
Setting up the integral package (SHARK)            ... done
Starting the Coulomb interaction                   ... done (   2.2 sec)
Reading the grid                                   ... done
Mapping shells                                     ... done
Starting the XC term evaluation                    ... done (   1.7 sec)
  promolecular density results
     # of electrons  =    168.003588258
     EX              =   -139.692278739
     EC              =     -5.618676245
     EX+EC           =   -145.310954984
Transforming the Hamiltonian                       ... done (   0.3 sec)
Diagonalizing the Hamiltonian                      ... done (   0.6 sec)
Back transforming the eigenvectors                 ... done (   0.1 sec)
Now organizing SCF variables                       ... done
                      ------------------
                      INITIAL GUESS DONE (   6.5 sec)
                      ------------------
-------------------
DFT GRID GENERATION
-------------------

General Integration Accuracy     IntAcc      ... 4.388
Radial Grid Type                 RadialGrid  ... OptM3 with GC (2021)
Angular Grid (max. ang.)         AngularGrid ... 4 (Lebedev-302)
Angular grid pruning method      GridPruning ... 4 (adaptive)
Weight generation scheme         WeightScheme... Becke
Basis function cutoff            BFCut       ... 1.0000e-11
Integration weight cutoff        WCut        ... 1.0000e-14
Angular grids for H and He will be reduced by one unit
Partially contracted basis set               ... off
Rotationally invariant grid construction     ... off

Total number of grid points                  ...   197479
Total number of batches                      ...     3107
Average number of points per batch           ...       63
Average number of grid points per atom       ...     4817
Time for grid setup =    5.018 sec


--------------------
CPCM SOLVATION MODEL
--------------------
CPCM parameters:
  Epsilon                                         ...       7.2500
  Refrac                                          ...       1.4070
  Rsolv                                           ...       1.3000
  Surface type                                    ... GAUSSIAN VDW
  Epsilon function type                           ...         CPCM
Radii:
 Radius for C  used is    3.8550 Bohr (=   2.0400 Ang.)
 Radius for H  used is    2.4944 Bohr (=   1.3200 Ang.)
 Radius for O  used is    3.4469 Bohr (=   1.8240 Ang.)
 Radius for Li used is    4.1272 Bohr (=   2.1840 Ang.)
Calculating surface                               ...        done! (  0.0s)
GEPOL surface points                              ...         2158
GEPOL Volume                                      ...    2636.0165
GEPOL Surface-area                                ...    1345.4402
Calculating surface distance matrix               ...        done! (  0.1s)
Performing Cholesky decomposition & store         ...        done! (  0.5s)
Overall time for CPCM initialization              ...                 0.7s
--------------
SCF ITERATIONS
--------------
ITER       Energy         Delta-E        Max-DP      RMS-DP      [F,P]     Damp
               ***  Starting incremental Fock matrix formation  ***
  0  -1079.8180791610   0.000000000000 0.38380239  0.00191664  0.3516673 0.7000
  1  -1080.1266642200  -0.308585058966 0.26503976  0.00143041  0.1028079 0.7000
                               ***Turning on DIIS***
  2  -1080.2232427721  -0.096578552065 0.21288968  0.00171931  0.0297711 0.0000
  3  -1080.4053692321  -0.182126460051 0.26790763  0.00132122  0.0471524 0.0000
  4  -1080.4361411846  -0.030771952532 0.04267140  0.00033895  0.0389069 0.0000
  5  -1080.4414314759  -0.005290291289 0.01824701  0.00014593  0.0038275 0.0000
                      *** Initiating the SOSCF procedure ***
                           *** Shutting down DIIS ***
                      *** Re-Reading the Fockian *** 
                      *** Removing any level shift *** 
ITER      Energy       Delta-E        Grad      Rot      Max-DP    RMS-DP
  6  -1080.44159712  -0.0001656436  0.000867  0.000867  0.005609  0.000049
               *** Restarting incremental Fock matrix formation ***
  7  -1080.44163926  -0.0000421385  0.000320  0.003459  0.003818  0.000038
  8  -1080.44163142   0.0000078333  0.000462  0.002929  0.004869  0.000022
  9  -1080.44165097  -0.0000195501  0.000215  0.002301  0.001319  0.000012
 10  -1080.44165129  -0.0000003187  0.000124  0.000182  0.000401  0.000003
 11  -1080.44165191  -0.0000006151  0.000064  0.000890  0.000701  0.000006
 12  -1080.44165207  -0.0000001643  0.000049  0.000246  0.000357  0.000002
 13  -1080.44165213  -0.0000000615  0.000046  0.000292  0.000380  0.000003
 14  -1080.44165218  -0.0000000425  0.000016  0.000157  0.000165  0.000001
 15  -1080.44165220  -0.0000000238  0.000009  0.000086  0.000194  0.000001
 16  -1080.44165221  -0.0000000140  0.000008  0.000073  0.000324  0.000002
 17  -1080.44165220   0.0000000101  0.000004  0.000025  0.000490  0.000003
 18  -1080.44165219   0.0000000152  0.000004  0.000028  0.000174  0.000001
                  ***Gradient check signals convergence***
              ***Rediagonalizing the Fockian in SOSCF/NRSCF***

               *****************************************************
               *                     SUCCESS                       *
               *           SCF CONVERGED AFTER  19 CYCLES          *
               *****************************************************


----------------
TOTAL SCF ENERGY
----------------

Total Energy       :        -1080.44165222 Eh          -29400.31204 eV

Components:
Nuclear Repulsion  :         1814.51085289 Eh           49375.35050 eV
Electronic Energy  :        -2894.95250510 Eh          -78775.66254 eV
One Electron Energy:        -5077.51429629 Eh         -138166.18824 eV
Two Electron Energy:         2182.56179118 Eh           59390.52569 eV
CPCM Dielectric    :           -0.02952475 Eh              -0.80341 eV

Virial components:
Potential Energy   :        -2156.94346457 Eh          -58693.41559 eV
Kinetic Energy     :         1076.50181236 Eh           29293.10355 eV
Virial Ratio       :            2.00365985


DFT components:
N(Alpha)           :       84.000086186891 electrons
N(Beta)            :       84.000086186891 electrons
N(Total)           :      168.000172373782 electrons
E(X)               :     -143.915268423764 Eh       
E(C)               :       -5.637601548656 Eh       
E(XC)              :     -149.552869972420 Eh       
DFET-embed. en.    :        0.000000000000 Eh       
CPCM Solvation Model Properties:
Surface-charge          :           -0.03203369
Charge-correction       :           -0.00019388 Eh              -0.00528 eV
Free-energy (cav+disp)  :  This term is not implemented in the current solvation scheme

---------------
SCF CONVERGENCE
---------------

  Last Energy change         ...   -2.6348e-08  Tolerance :   1.0000e-08
  Last MAX-Density change    ...    7.1303e-04  Tolerance :   1.0000e-07
  Last RMS-Density change    ...    3.8713e-06  Tolerance :   5.0000e-09
  Last Orbital Gradient      ...    1.3672e-06  Tolerance :   1.0000e-05
  Last Orbital Rotation      ...    5.9840e-06  Tolerance :   1.0000e-05

             **** THE GBW FILE WAS UPDATED (Li-Aldol_freqopt.gbw) ****
             **** DENSITY Li-Aldol_freqopt.scfp WAS UPDATED ****
             **** ENERGY FILE WAS UPDATED (Li-Aldol_freqopt.en.tmp) ****
             **** THE GBW FILE WAS UPDATED (Li-Aldol_freqopt.gbw) ****
             **** DENSITY Li-Aldol_freqopt.scfp WAS UPDATED ****
----------------
ORBITAL ENERGIES
----------------

  NO   OCC          E(Eh)            E(eV) 
   0   2.0000     -18.930559      -515.1267 
   1   2.0000     -18.920048      -514.8407 
   2   2.0000     -18.881882      -513.8021 
   3   2.0000     -18.869213      -513.4574 
   4   2.0000     -18.799001      -511.5468 
   5   2.0000     -10.110636      -275.1244 
   6   2.0000     -10.074595      -274.1437 
   7   2.0000     -10.052943      -273.5545 
   8   2.0000     -10.037972      -273.1471 
   9   2.0000     -10.035968      -273.0926 
  10   2.0000     -10.030687      -272.9489 
  11   2.0000     -10.003295      -272.2035 
  12   2.0000     -10.001214      -272.1469 
  13   2.0000      -9.996147      -272.0090 
  14   2.0000      -9.995453      -271.9901 
  15   2.0000      -9.993759      -271.9440 
  16   2.0000      -9.993233      -271.9297 
  17   2.0000      -9.992696      -271.9151 
  18   2.0000      -9.992472      -271.9090 
  19   2.0000      -9.987806      -271.7820 
  20   2.0000      -9.986234      -271.7393 
  21   2.0000      -9.983729      -271.6711 
  22   2.0000      -9.983184      -271.6562 
  23   2.0000      -1.850488       -50.3543 
  24   2.0000      -1.038685       -28.2640 
  25   2.0000      -1.006845       -27.3977 
  26   2.0000      -0.983004       -26.7489 
  27   2.0000      -0.955180       -25.9918 
  28   2.0000      -0.885976       -24.1086 
  29   2.0000      -0.808762       -22.0075 
  30   2.0000      -0.804916       -21.9029 
  31   2.0000      -0.729548       -19.8520 
  32   2.0000      -0.715818       -19.4784 
  33   2.0000      -0.711526       -19.3616 
  34   2.0000      -0.697114       -18.9694 
  35   2.0000      -0.686029       -18.6678 
  36   2.0000      -0.674881       -18.3644 
  37   2.0000      -0.648447       -17.6451 
  38   2.0000      -0.608869       -16.5682 
  39   2.0000      -0.583603       -15.8806 
  40   2.0000      -0.567268       -15.4361 
  41   2.0000      -0.561743       -15.2858 
  42   2.0000      -0.533452       -14.5160 
  43   2.0000      -0.519759       -14.1434 
  44   2.0000      -0.512821       -13.9546 
  45   2.0000      -0.492726       -13.4077 
  46   2.0000      -0.478833       -13.0297 
  47   2.0000      -0.454989       -12.3809 
  48   2.0000      -0.451310       -12.2808 
  49   2.0000      -0.443679       -12.0731 
  50   2.0000      -0.436627       -11.8812 
  51   2.0000      -0.433661       -11.8005 
  52   2.0000      -0.429768       -11.6946 
  53   2.0000      -0.428884       -11.6705 
  54   2.0000      -0.412901       -11.2356 
  55   2.0000      -0.406369       -11.0579 
  56   2.0000      -0.401344       -10.9211 
  57   2.0000      -0.397521       -10.8171 
  58   2.0000      -0.391963       -10.6659 
  59   2.0000      -0.384248       -10.4559 
  60   2.0000      -0.380287       -10.3481 
  61   2.0000      -0.375099       -10.2070 
  62   2.0000      -0.369383       -10.0514 
  63   2.0000      -0.358852        -9.7649 
  64   2.0000      -0.355655        -9.6779 
  65   2.0000      -0.341216        -9.2849 
  66   2.0000      -0.339896        -9.2490 
  67   2.0000      -0.334146        -9.0926 
  68   2.0000      -0.328599        -8.9416 
  69   2.0000      -0.327030        -8.8989 
  70   2.0000      -0.318282        -8.6609 
  71   2.0000      -0.307136        -8.3576 
  72   2.0000      -0.300854        -8.1866 
  73   2.0000      -0.295392        -8.0380 
  74   2.0000      -0.294762        -8.0209 
  75   2.0000      -0.265116        -7.2142 
  76   2.0000      -0.251620        -6.8469 
  77   2.0000      -0.246475        -6.7069 
  78   2.0000      -0.236918        -6.4469 
  79   2.0000      -0.235076        -6.3967 
  80   2.0000      -0.221445        -6.0258 
  81   2.0000      -0.208727        -5.6797 
  82   2.0000      -0.187833        -5.1112 
  83   2.0000      -0.182431        -4.9642 
  84   0.0000      -0.096397        -2.6231 
  85   0.0000      -0.056072        -1.5258 
  86   0.0000      -0.038311        -1.0425 
  87   0.0000      -0.035968        -0.9787 
  88   0.0000      -0.010892        -0.2964 
  89   0.0000      -0.007996        -0.2176 
  90   0.0000       0.001626         0.0443 
  91   0.0000       0.034733         0.9451 
  92   0.0000       0.040425         1.1000 
  93   0.0000       0.046717         1.2712 
  94   0.0000       0.049085         1.3357 
  95   0.0000       0.056953         1.5498 
  96   0.0000       0.061564         1.6752 
  97   0.0000       0.066379         1.8063 
  98   0.0000       0.070735         1.9248 
  99   0.0000       0.077437         2.1072 
 100   0.0000       0.082068         2.2332 
 101   0.0000       0.085957         2.3390 
 102   0.0000       0.088403         2.4056 
 103   0.0000       0.097241         2.6461 
 104   0.0000       0.098201         2.6722 
 105   0.0000       0.102026         2.7763 
 106   0.0000       0.107121         2.9149 
 107   0.0000       0.111803         3.0423 
 108   0.0000       0.113521         3.0891 
 109   0.0000       0.117954         3.2097 
 110   0.0000       0.121983         3.3193 
 111   0.0000       0.124399         3.3851 
 112   0.0000       0.131054         3.5662 
 113   0.0000       0.133719         3.6387 
 114   0.0000       0.136938         3.7263 
 115   0.0000       0.145778         3.9668 
 116   0.0000       0.151624         4.1259 
 117   0.0000       0.159675         4.3450 
 118   0.0000       0.163754         4.4560 
 119   0.0000       0.172022         4.6809 
 120   0.0000       0.174279         4.7424 
 121   0.0000       0.181850         4.9484 
 122   0.0000       0.183544         4.9945 
 123   0.0000       0.190435         5.1820 
 124   0.0000       0.192414         5.2358 
 125   0.0000       0.196226         5.3396 
 126   0.0000       0.203570         5.5394 
 127   0.0000       0.207997         5.6599 
 128   0.0000       0.209116         5.6903 
 129   0.0000       0.211388         5.7522 
 130   0.0000       0.215534         5.8650 
 131   0.0000       0.222222         6.0470 
 132   0.0000       0.226063         6.1515 
 133   0.0000       0.227419         6.1884 
 134   0.0000       0.230503         6.2723 
 135   0.0000       0.235128         6.3982 
 136   0.0000       0.239457         6.5160 
 137   0.0000       0.244095         6.6422 
 138   0.0000       0.246835         6.7167 
 139   0.0000       0.253451         6.8968 
 140   0.0000       0.258362         7.0304 
 141   0.0000       0.262554         7.1445 
 142   0.0000       0.266081         7.2404 
 143   0.0000       0.271112         7.3773 
 144   0.0000       0.275032         7.4840 
 145   0.0000       0.279446         7.6041 
 146   0.0000       0.284653         7.7458 
 147   0.0000       0.287876         7.8335 
 148   0.0000       0.292488         7.9590 
 149   0.0000       0.299076         8.1383 
 150   0.0000       0.304889         8.2965 
 151   0.0000       0.311099         8.4654 
 152   0.0000       0.316593         8.6149 
 153   0.0000       0.317687         8.6447 
 154   0.0000       0.323129         8.7928 
 155   0.0000       0.323810         8.8113 
 156   0.0000       0.330488         8.9930 
 157   0.0000       0.336450         9.1553 
 158   0.0000       0.343474         9.3464 
 159   0.0000       0.347751         9.4628 
 160   0.0000       0.353084         9.6079 
 161   0.0000       0.356193         9.6925 
 162   0.0000       0.357925         9.7396 
 163   0.0000       0.362067         9.8524 
 164   0.0000       0.363411         9.8889 
 165   0.0000       0.373224        10.1559 
 166   0.0000       0.377500        10.2723 
 167   0.0000       0.380064        10.3421 
 168   0.0000       0.384570        10.4647 
 169   0.0000       0.387115        10.5339 
 170   0.0000       0.389561        10.6005 
 171   0.0000       0.393079        10.6962 
 172   0.0000       0.395313        10.7570 
 173   0.0000       0.404004        10.9935 
 174   0.0000       0.407295        11.0831 
 175   0.0000       0.411641        11.2013 
 176   0.0000       0.415668        11.3109 
 177   0.0000       0.419062        11.4033 
 178   0.0000       0.419953        11.4275 
 179   0.0000       0.424712        11.5570 
 180   0.0000       0.427830        11.6418 
 181   0.0000       0.434383        11.8202 
 182   0.0000       0.436748        11.8845 
 183   0.0000       0.439964        11.9720 
 184   0.0000       0.445140        12.1129 
 185   0.0000       0.446223        12.1424 
 186   0.0000       0.449603        12.2343 
 187   0.0000       0.459030        12.4908 
 188   0.0000       0.462690        12.5904 
 189   0.0000       0.466871        12.7042 
 190   0.0000       0.468413        12.7462 
 191   0.0000       0.472450        12.8560 
 192   0.0000       0.476537        12.9672 
 193   0.0000       0.480500        13.0751 
 194   0.0000       0.482419        13.1273 
 195   0.0000       0.488258        13.2862 
 196   0.0000       0.490511        13.3475 
 197   0.0000       0.496149        13.5009 
 198   0.0000       0.502330        13.6691 
 199   0.0000       0.504212        13.7203 
 200   0.0000       0.513672        13.9777 
 201   0.0000       0.516730        14.0609 
 202   0.0000       0.528665        14.3857 
 203   0.0000       0.533353        14.5133 
 204   0.0000       0.543148        14.7798 
 205   0.0000       0.546616        14.8742 
 206   0.0000       0.548541        14.9266 
 207   0.0000       0.553015        15.0483 
 208   0.0000       0.566421        15.4131 
 209   0.0000       0.568882        15.4801 
 210   0.0000       0.577408        15.7121 
 211   0.0000       0.577571        15.7165 
 212   0.0000       0.584177        15.8963 
 213   0.0000       0.590751        16.0751 
 214   0.0000       0.593645        16.1539 
 215   0.0000       0.597091        16.2477 
 216   0.0000       0.600271        16.3342 
 217   0.0000       0.611326        16.6350 
 218   0.0000       0.616129        16.7657 
 219   0.0000       0.619937        16.8693 
 220   0.0000       0.628413        17.1000 
 221   0.0000       0.631035        17.1713 
 222   0.0000       0.633408        17.2359 
 223   0.0000       0.639808        17.4100 
 224   0.0000       0.644542        17.5389 
 225   0.0000       0.646532        17.5930 
 226   0.0000       0.651174        17.7194 
 227   0.0000       0.657422        17.8893 
 228   0.0000       0.666936        18.1483 
 229   0.0000       0.675509        18.3815 
 230   0.0000       0.677045        18.4233 
 231   0.0000       0.685542        18.6545 
 232   0.0000       0.693795        18.8791 
 233   0.0000       0.699605        19.0372 
 234   0.0000       0.701764        19.0960 
 235   0.0000       0.709198        19.2983 
 236   0.0000       0.716017        19.4838 
 237   0.0000       0.717393        19.5213 
 238   0.0000       0.723227        19.6800 
 239   0.0000       0.728616        19.8266 
 240   0.0000       0.732474        19.9316 
 241   0.0000       0.735516        20.0144 
 242   0.0000       0.737426        20.0664 
 243   0.0000       0.742851        20.2140 
 244   0.0000       0.751941        20.4614 
 245   0.0000       0.756594        20.5880 
 246   0.0000       0.762982        20.7618 
 247   0.0000       0.771953        21.0059 
 248   0.0000       0.779259        21.2047 
 249   0.0000       0.782862        21.3027 
 250   0.0000       0.786357        21.3979 
 251   0.0000       0.795317        21.6417 
 252   0.0000       0.805144        21.9091 
 253   0.0000       0.805820        21.9275 
 254   0.0000       0.810265        22.0484 
 255   0.0000       0.817190        22.2369 
 256   0.0000       0.821932        22.3659 
 257   0.0000       0.839311        22.8388 
 258   0.0000       0.843539        22.9539 
 259   0.0000       0.852794        23.2057 
 260   0.0000       0.856344        23.3023 
 261   0.0000       0.869251        23.6535 
 262   0.0000       0.874919        23.8078 
 263   0.0000       0.878136        23.8953 
 264   0.0000       0.885111        24.0851 
 265   0.0000       0.887657        24.1544 
 266   0.0000       0.895033        24.3551 
 267   0.0000       0.910641        24.7798 
 268   0.0000       0.914171        24.8759 
 269   0.0000       0.925044        25.1717 
 270   0.0000       0.930479        25.3196 
 271   0.0000       0.934974        25.4419 
 272   0.0000       0.940244        25.5853 
 273   0.0000       0.952274        25.9127 
 274   0.0000       0.958111        26.0715 
 275   0.0000       0.961057        26.1517 
 276   0.0000       0.968004        26.3407 
 277   0.0000       0.972258        26.4565 
 278   0.0000       0.982181        26.7265 
 279   0.0000       0.989708        26.9313 
 280   0.0000       0.991379        26.9768 
 281   0.0000       0.995727        27.0951 
 282   0.0000       1.009212        27.4620 
 283   0.0000       1.023126        27.8407 
 284   0.0000       1.032904        28.1067 
 285   0.0000       1.039861        28.2960 
 286   0.0000       1.047734        28.5103 
 287   0.0000       1.057723        28.7821 
 288   0.0000       1.063804        28.9476 
 289   0.0000       1.068110        29.0648 
 290   0.0000       1.072368        29.1806 
 291   0.0000       1.085728        29.5442 
 292   0.0000       1.093528        29.7564 
 293   0.0000       1.098547        29.8930 
 294   0.0000       1.100584        29.9484 
 295   0.0000       1.116000        30.3679 
 296   0.0000       1.136344        30.9215 
 297   0.0000       1.141024        31.0488 
 298   0.0000       1.152253        31.3544 
 299   0.0000       1.160589        31.5812 
 300   0.0000       1.165031        31.7021 
 301   0.0000       1.180562        32.1247 
 302   0.0000       1.186762        32.2934 
 303   0.0000       1.193841        32.4861 
 304   0.0000       1.197336        32.5812 
 305   0.0000       1.203567        32.7507 
 306   0.0000       1.210938        32.9513 
 307   0.0000       1.217413        33.1275 
 308   0.0000       1.229791        33.4643 
 309   0.0000       1.231482        33.5103 
 310   0.0000       1.237197        33.6658 
 311   0.0000       1.240902        33.7666 
 312   0.0000       1.258536        34.2465 
 313   0.0000       1.269761        34.5520 
 314   0.0000       1.278958        34.8022 
 315   0.0000       1.282627        34.9021 
 316   0.0000       1.287116        35.0242 
 317   0.0000       1.294880        35.2355 
 318   0.0000       1.301525        35.4163 
 319   0.0000       1.317977        35.8640 
 320   0.0000       1.330777        36.2123 
 321   0.0000       1.337967        36.4079 
 322   0.0000       1.342288        36.5255 
 323   0.0000       1.348512        36.6949 
 324   0.0000       1.351128        36.7661 
 325   0.0000       1.354248        36.8510 
 326   0.0000       1.372053        37.3355 
 327   0.0000       1.390639        37.8412 
 328   0.0000       1.404695        38.2237 
 329   0.0000       1.408733        38.3336 
 330   0.0000       1.414640        38.4943 
 331   0.0000       1.421979        38.6940 
 332   0.0000       1.429468        38.8978 
 333   0.0000       1.441862        39.2351 
 334   0.0000       1.449375        39.4395 
 335   0.0000       1.454894        39.5897 
 336   0.0000       1.458421        39.6856 
 337   0.0000       1.461518        39.7699 
 338   0.0000       1.462345        39.7924 
 339   0.0000       1.467832        39.9417 
 340   0.0000       1.473674        40.1007 
 341   0.0000       1.486148        40.4401 
 342   0.0000       1.488336        40.4997 
 343   0.0000       1.490977        40.5715 
 344   0.0000       1.504220        40.9319 
 345   0.0000       1.510974        41.1157 
 346   0.0000       1.514157        41.2023 
 347   0.0000       1.518086        41.3092 
 348   0.0000       1.527441        41.5638 
 349   0.0000       1.531641        41.6781 
 350   0.0000       1.540231        41.9118 
 351   0.0000       1.545385        42.0521 
 352   0.0000       1.557258        42.3751 
 353   0.0000       1.565481        42.5989 
 354   0.0000       1.570549        42.7368 
 355   0.0000       1.575508        42.8718 
 356   0.0000       1.578047        42.9408 
 357   0.0000       1.582017        43.0489 
 358   0.0000       1.591132        43.2969 
 359   0.0000       1.604109        43.6500 
 360   0.0000       1.605716        43.6937 
 361   0.0000       1.615261        43.9535 
 362   0.0000       1.617622        44.0177 
 363   0.0000       1.620269        44.0898 
 364   0.0000       1.624876        44.2151 
 365   0.0000       1.640432        44.6384 
 366   0.0000       1.644315        44.7441 
 367   0.0000       1.649879        44.8955 
 368   0.0000       1.658547        45.1314 
 369   0.0000       1.660997        45.1980 
 370   0.0000       1.670807        45.4650 
 371   0.0000       1.679440        45.6999 
 372   0.0000       1.692084        46.0440 
 373   0.0000       1.698132        46.2085 
 374   0.0000       1.708261        46.4841 
 375   0.0000       1.712967        46.6122 
 376   0.0000       1.721844        46.8538 
 377   0.0000       1.730502        47.0894 
 378   0.0000       1.743325        47.4383 
 379   0.0000       1.751088        47.6495 
 380   0.0000       1.765649        48.0458 
 381   0.0000       1.773263        48.2529 
 382   0.0000       1.780308        48.4446 
 383   0.0000       1.783799        48.5396 
 384   0.0000       1.788974        48.6805 
 385   0.0000       1.792856        48.7861 
 386   0.0000       1.813836        49.3570 
 387   0.0000       1.830008        49.7970 
 388   0.0000       1.836779        49.9813 
 389   0.0000       1.848120        50.2899 
 390   0.0000       1.852392        50.4062 
 391   0.0000       1.857960        50.5577 
 392   0.0000       1.867213        50.8094 
 393   0.0000       1.874991        51.0211 
 394   0.0000       1.876149        51.0526 
 395   0.0000       1.886740        51.3408 
 396   0.0000       1.892364        51.4938 
 397   0.0000       1.900851        51.7248 
 398   0.0000       1.906288        51.8727 
 399   0.0000       1.920716        52.2654 
 400   0.0000       1.924945        52.3804 
 401   0.0000       1.936652        52.6990 
 402   0.0000       1.951433        53.1012 
 403   0.0000       1.955531        53.2127 
 404   0.0000       1.965232        53.4767 
 405   0.0000       1.975477        53.7555 
 406   0.0000       1.978549        53.8391 
 407   0.0000       1.981867        53.9294 
 408   0.0000       1.992268        54.2124 
 409   0.0000       2.005883        54.5828 
 410   0.0000       2.011275        54.7296 
 411   0.0000       2.017697        54.9043 
 412   0.0000       2.020338        54.9762 
 413   0.0000       2.044685        55.6387 
 414   0.0000       2.054129        55.8957 
[...]
 23:    251.39   0.002451   12.39  0.003043  (-0.010933  0.029428 -0.045361)
 24:    261.07   0.000297    1.50  0.000355  (-0.013203 -0.012866  0.003927)
 25:    271.92   0.000421    2.13  0.000483  ( 0.005239 -0.020855  0.004586)
 26:    277.47   0.004638   23.44  0.005216  (-0.032173 -0.042028 -0.049135)
 27:    317.80   0.000724    3.66  0.000711  (-0.012422 -0.001719 -0.023535)
 28:    363.65   0.007198   36.38  0.006177  ( 0.042921  0.011945  0.064746)
 29:    388.64   0.004893   24.73  0.003929  ( 0.053225  0.025169  0.021515)
 30:    402.14   0.000708    3.58  0.000549  (-0.009274 -0.009180 -0.019470)
 31:    406.61   0.005355   27.06  0.004110  (-0.055735  0.026461 -0.017415)
 32:    431.22   0.002666   13.47  0.001929  (-0.042467  0.001378 -0.011127)
 33:    462.12   0.004868   24.60  0.003287  ( 0.040823  0.032838  0.023284)
 34:    482.37   0.002696   13.62  0.001744  (-0.031272  0.017240 -0.021658)
 35:    500.61   0.003785   19.13  0.002359  ( 0.013496 -0.031022  0.034854)
 36:    526.77   0.006303   31.85  0.003734  ( 0.022901  0.034240  0.045136)
 37:    541.81   0.003598   18.18  0.002072  ( 0.033854 -0.010651  0.028508)
 38:    557.25   0.002279   11.52  0.001276  ( 0.009640 -0.022440 -0.026076)
 39:    565.48   0.001715    8.67  0.000947  (-0.016928 -0.022477  0.012441)
 40:    595.43   0.007424   37.52  0.003891  (-0.007208 -0.000907  0.061952)
 41:    619.12   0.008609   43.51  0.004339  ( 0.063575 -0.016565  0.004795)
 42:    628.96   0.007390   37.34  0.003666  ( 0.047435 -0.025933 -0.027275)
 43:    637.45   0.027106  136.98  0.013270  ( 0.095379  0.013480  0.063174)
 44:    670.09   0.019132   96.69  0.008910  (-0.078858  0.021605  0.047167)
 45:    682.29   0.006594   33.33  0.003016  (-0.025450  0.048619 -0.002146)
 46:    700.45   0.003665   18.52  0.001633  ( 0.012696 -0.038363  0.000036)
 47:    711.40   0.016583   83.81  0.007275  ( 0.084719 -0.009632 -0.002129)
 48:    724.99   0.012252   61.92  0.005274  ( 0.071445 -0.010536 -0.007655)
 49:    759.37   0.019616   99.13  0.008061  (-0.082527 -0.026337  0.023592)
 50:    774.41   0.012369   62.51  0.004984  (-0.066537 -0.010573  0.021100)
 51:    802.20   0.011246   56.83  0.004375  ( 0.052991 -0.039307 -0.004642)
 52:    836.76   0.001159    5.86  0.000432  (-0.019520  0.001976  0.006877)
 53:    845.47   0.002856   14.43  0.001054  (-0.011534 -0.024973  0.017250)
 54:    851.01   0.009069   45.83  0.003326  ( 0.005896 -0.054168  0.018886)
 55:    880.66   0.002361   11.93  0.000837  (-0.015641  0.012002  0.021165)
 56:    885.80   0.002488   12.57  0.000876  ( 0.023594  0.017860 -0.000909)
 57:    910.25   0.004706   23.78  0.001613  (-0.037213 -0.009299  0.011914)
 58:    945.32   0.045100  227.92  0.014888  (-0.106747  0.002531 -0.059051)
 59:    963.50   0.000034    0.17  0.000011  ( 0.000006  0.003001  0.001375)
 60:    966.97   0.003565   18.01  0.001150  ( 0.029079 -0.012387  0.012302)
 61:    971.28   0.003234   16.34  0.001039  ( 0.026242 -0.018520 -0.002745)
 62:    981.18   0.018706   94.53  0.005949  (-0.027331  0.070930  0.013094)
 63:    992.67   0.000524    2.65  0.000165  (-0.006754  0.001240 -0.010843)
 64:   1016.35   0.002922   14.77  0.000897  (-0.020924  0.008275  0.019771)
 65:   1019.84   0.036833  186.14  0.011271  ( 0.073214 -0.060658  0.047233)
 66:   1055.59   0.002254   11.39  0.000666  ( 0.006237 -0.019466 -0.015768)
 67:   1066.01   0.062256  314.62  0.018225  ( 0.065355  0.000698 -0.118123)
 68:   1089.31   0.025675  129.75  0.007355  (-0.076097 -0.016387 -0.036001)
 69:   1101.48   0.000496    2.51  0.000140  (-0.007426  0.002809  0.008800)
 70:   1115.59   0.003662   18.50  0.001024  ( 0.031857  0.001594  0.002627)
 71:   1149.68   0.009777   49.41  0.002654  ( 0.017310 -0.036858 -0.031556)
 72:   1151.62   0.003488   17.63  0.000945  ( 0.003140 -0.013340 -0.027519)
 73:   1151.92   0.000976    4.93  0.000264  (-0.003085 -0.012583 -0.009828)
 74:   1163.85   0.021568  108.99  0.005783  (-0.060424 -0.011806 -0.044638)
 75:   1178.69   0.002934   14.83  0.000777  ( 0.023945 -0.014130  0.001975)
 76:   1183.35   0.003075   15.54  0.000811  ( 0.000394  0.028382 -0.002314)
 77:   1184.93   0.010260   51.85  0.002702  ( 0.046806 -0.019842  0.010841)
 78:   1185.45   0.001447    7.31  0.000381  ( 0.012388  0.002305 -0.014904)
 79:   1207.09   0.020441  103.30  0.005285  ( 0.006474  0.047224  0.054886)
 80:   1238.46   0.017885   90.38  0.004507  ( 0.029491 -0.016468  0.058014)
 81:   1248.37   0.130979  661.91  0.032742  ( 0.136756 -0.101915 -0.060437)
 82:   1255.03   0.040585  205.10  0.010092  ( 0.041393 -0.017402 -0.089863)
 83:   1291.60   0.085346  431.30  0.020620  ( 0.105997 -0.088476  0.039459)
 84:   1295.55   0.004260   21.53  0.001026  ( 0.022119 -0.015850  0.016902)
 85:   1308.65   0.030580  154.54  0.007292  (-0.055087  0.061448 -0.021949)
 86:   1323.32   0.006203   31.35  0.001463  ( 0.017146 -0.033880  0.004565)
 87:   1359.42   0.009834   49.70  0.002257  (-0.026437  0.003137 -0.039353)
 88:   1363.01   0.009540   48.21  0.002184  (-0.020403  0.040158  0.012463)
 89:   1410.56   0.005869   29.66  0.001299  ( 0.004653  0.016361  0.031768)
 90:   1435.70   0.020596  104.08  0.004477  (-0.050445  0.035363 -0.026102)
 91:   1456.42   0.002374   12.00  0.000509  (-0.001374  0.018634  0.012630)
 92:   1457.09   0.004540   22.94  0.000972  ( 0.021362 -0.019885 -0.010980)
 93:   1472.84   0.007090   35.83  0.001502  ( 0.036700 -0.012288 -0.002089)
 94:   1473.51   0.019627   99.18  0.004157  ( 0.036631 -0.043967  0.029692)
 95:   1476.98   0.002198   11.11  0.000464  ( 0.011921  0.013923 -0.011337)
 96:   1486.69   0.003277   16.56  0.000688  ( 0.012057 -0.021662 -0.008564)
 97:   1492.76   0.004329   21.87  0.000905  ( 0.008956 -0.016577 -0.023450)
 98:   1497.89   0.002961   14.97  0.000617  (-0.016825  0.016346  0.008166)
 99:   1508.06   0.001231    6.22  0.000255  ( 0.005744 -0.008454  0.012254)
100:   1552.56   0.119642  604.62  0.024048  ( 0.039318 -0.101779 -0.110195)
101:   1572.70   0.000485    2.45  0.000096  (-0.002364  0.003208 -0.008961)
102:   1584.00   0.009781   49.43  0.001927  ( 0.029098 -0.021854  0.024550)
103:   1605.80   0.018436   93.17  0.003583  ( 0.037078 -0.046988 -0.000341)
104:   1609.53   0.006439   32.54  0.001248  (-0.023310  0.014293 -0.022378)
105:   1676.70   0.131753  665.82  0.024521  (-0.017639  0.124370 -0.093501)
106:   2817.44   0.027007  136.48  0.002991  (-0.005875 -0.015888  0.052004)
107:   2990.00   0.012740   64.39  0.001330  ( 0.023742 -0.012722  0.024580)
108:   3023.11   0.007082   35.79  0.000731  ( 0.009151  0.012188 -0.022332)
109:   3030.13   0.003104   15.69  0.000320  ( 0.002658 -0.010840  0.013967)
110:   3054.64   0.009071   45.84  0.000927  ( 0.021692  0.018454 -0.010753)
111:   3105.73   0.005663   28.62  0.000569  (-0.022107  0.001208 -0.008879)
112:   3110.70   0.002920   14.76  0.000293  (-0.003414 -0.010874 -0.012769)
113:   3117.04   0.003272   16.54  0.000328  ( 0.011544 -0.010422  0.009259)
114:   3117.27   0.005056   25.55  0.000506  (-0.010733  0.017494  0.009216)
115:   3118.66   0.004568   23.08  0.000457  (-0.007641  0.013487  0.014724)
116:   3141.66   0.000352    1.78  0.000035  (-0.004173  0.003606 -0.002132)
117:   3144.55   0.001988   10.05  0.000197  ( 0.000836  0.007196  0.012034)
118:   3155.24   0.003978   20.10  0.000393  (-0.002893 -0.007010 -0.018328)
119:   3156.09   0.003117   15.75  0.000308  ( 0.010555 -0.004352  0.013337)
120:   3166.44   0.001546    7.81  0.000152  ( 0.009139 -0.007848  0.002685)
121:   3173.20   0.001005    5.08  0.000099  (-0.007345  0.005108 -0.004337)
122:   3181.22   0.001414    7.15  0.000139  ( 0.001918 -0.009206 -0.007091)

* The epsilon (eps) is given for a Dirac delta lineshape.
** The dipole moment derivative (T) already includes vibrational overlap.

The first frequency considered to be a vibration is 6
The total number of vibrations considered is 117


--------------------------
THERMOCHEMISTRY AT 298.15K
--------------------------

Temperature         ... 298.15 K
Pressure            ... 1.00 atm
Total Mass          ... 320.27 AMU

Throughout the following assumptions are being made:
  (1) The electronic state is orbitally nondegenerate
  (2) There are no thermally accessible electronically excited states
  (3) Hindered rotations indicated by low frequency modes are not
      treated as such but are treated as vibrations and this may
      cause some error
  (4) All equations used are the standard statistical mechanics
      equations for an ideal gas
  (5) All vibrations are strictly harmonic

freq.       9.11  E(vib)   ...       0.58 
freq.      17.08  E(vib)   ...       0.57 
freq.      23.35  E(vib)   ...       0.56 
freq.      40.26  E(vib)   ...       0.54 
freq.      49.06  E(vib)   ...       0.53 
freq.      58.88  E(vib)   ...       0.51 
freq.      88.75  E(vib)   ...       0.47 
freq.     101.25  E(vib)   ...       0.46 
freq.     106.69  E(vib)   ...       0.45 
freq.     126.34  E(vib)   ...       0.43 
freq.     143.66  E(vib)   ...       0.41 
freq.     163.93  E(vib)   ...       0.39 
freq.     168.60  E(vib)   ...       0.38 
freq.     193.05  E(vib)   ...       0.36 
freq.     199.25  E(vib)   ...       0.35 
freq.     205.76  E(vib)   ...       0.35 
freq.     234.90  E(vib)   ...       0.32 
freq.     251.39  E(vib)   ...       0.30 
freq.     261.07  E(vib)   ...       0.30 
freq.     271.92  E(vib)   ...       0.29 
freq.     277.47  E(vib)   ...       0.28 
freq.     317.80  E(vib)   ...       0.25 
freq.     363.65  E(vib)   ...       0.22 
freq.     388.64  E(vib)   ...       0.20 
freq.     402.14  E(vib)   ...       0.19 
freq.     406.61  E(vib)   ...       0.19 
freq.     431.22  E(vib)   ...       0.18 
freq.     462.12  E(vib)   ...       0.16 
freq.     482.37  E(vib)   ...       0.15 
freq.     500.61  E(vib)   ...       0.14 
freq.     526.77  E(vib)   ...       0.13 
freq.     541.81  E(vib)   ...       0.12 
freq.     557.25  E(vib)   ...       0.12 
freq.     565.48  E(vib)   ...       0.11 
freq.     595.43  E(vib)   ...       0.10 
freq.     619.12  E(vib)   ...       0.09 
freq.     628.96  E(vib)   ...       0.09 
freq.     637.45  E(vib)   ...       0.09 
freq.     670.09  E(vib)   ...       0.08 
freq.     682.29  E(vib)   ...       0.08 
freq.     700.45  E(vib)   ...       0.07 
freq.     711.40  E(vib)   ...       0.07 
freq.     724.99  E(vib)   ...       0.06 
freq.     759.37  E(vib)   ...       0.06 
freq.     774.41  E(vib)   ...       0.05 
freq.     802.20  E(vib)   ...       0.05 
freq.     836.76  E(vib)   ...       0.04 
freq.     845.47  E(vib)   ...       0.04 
freq.     851.01  E(vib)   ...       0.04 
freq.     880.66  E(vib)   ...       0.04 
freq.     885.80  E(vib)   ...       0.04 
freq.     910.25  E(vib)   ...       0.03 
freq.     945.32  E(vib)   ...       0.03 
freq.     963.50  E(vib)   ...       0.03 
freq.     966.97  E(vib)   ...       0.03 
freq.     971.28  E(vib)   ...       0.03 
freq.     981.18  E(vib)   ...       0.02 
freq.     992.67  E(vib)   ...       0.02 
freq.    1016.35  E(vib)   ...       0.02 
freq.    1019.84  E(vib)   ...       0.02 
freq.    1055.59  E(vib)   ...       0.02 
freq.    1066.01  E(vib)   ...       0.02 
freq.    1089.31  E(vib)   ...       0.02 
freq.    1101.48  E(vib)   ...       0.02 
freq.    1115.59  E(vib)   ...       0.01 
freq.    1149.68  E(vib)   ...       0.01 
freq.    1151.62  E(vib)   ...       0.01 
freq.    1151.92  E(vib)   ...       0.01 
freq.    1163.85  E(vib)   ...       0.01 
freq.    1178.69  E(vib)   ...       0.01 
freq.    1183.35  E(vib)   ...       0.01 
freq.    1184.93  E(vib)   ...       0.01 
freq.    1185.45  E(vib)   ...       0.01 
freq.    1207.09  E(vib)   ...       0.01 
freq.    1238.46  E(vib)   ...       0.01 
freq.    1248.37  E(vib)   ...       0.01 
freq.    1255.03  E(vib)   ...       0.01 
freq.    1291.60  E(vib)   ...       0.01 
freq.    1295.55  E(vib)   ...       0.01 
freq.    1308.65  E(vib)   ...       0.01 
freq.    1323.32  E(vib)   ...       0.01 
freq.    1359.42  E(vib)   ...       0.01 
freq.    1363.01  E(vib)   ...       0.01 
freq.    1410.56  E(vib)   ...       0.00 
freq.    1435.70  E(vib)   ...       0.00 
freq.    1456.42  E(vib)   ...       0.00 
freq.    1457.09  E(vib)   ...       0.00 
freq.    1472.84  E(vib)   ...       0.00 
freq.    1473.51  E(vib)   ...       0.00 
freq.    1476.98  E(vib)   ...       0.00 
freq.    1486.69  E(vib)   ...       0.00 
freq.    1492.76  E(vib)   ...       0.00 
freq.    1497.89  E(vib)   ...       0.00 
freq.    1508.06  E(vib)   ...       0.00 
freq.    1552.56  E(vib)   ...       0.00 
freq.    1572.70  E(vib)   ...       0.00 
freq.    1584.00  E(vib)   ...       0.00 
freq.    1605.80  E(vib)   ...       0.00 
freq.    1609.53  E(vib)   ...       0.00 
freq.    1676.70  E(vib)   ...       0.00 
freq.    2817.44  E(vib)   ...       0.00 
freq.    2990.00  E(vib)   ...       0.00 
freq.    3023.11  E(vib)   ...       0.00 
freq.    3030.13  E(vib)   ...       0.00 
freq.    3054.64  E(vib)   ...       0.00 
freq.    3105.73  E(vib)   ...       0.00 
freq.    3110.70  E(vib)   ...       0.00 
freq.    3117.04  E(vib)   ...       0.00 
freq.    3117.27  E(vib)   ...       0.00 
freq.    3118.66  E(vib)   ...       0.00 
freq.    3141.66  E(vib)   ...       0.00 
freq.    3144.55  E(vib)   ...       0.00 
freq.    3155.24  E(vib)   ...       0.00 
freq.    3156.09  E(vib)   ...       0.00 
freq.    3166.44  E(vib)   ...       0.00 
freq.    3173.20  E(vib)   ...       0.00 
freq.    3181.22  E(vib)   ...       0.00 

------------
INNER ENERGY
------------

The inner energy is: U= E(el) + E(ZPE) + E(vib) + E(rot) + E(trans)
    E(el)   - is the total energy from the electronic structure calculation
              = E(kin-el) + E(nuc-el) + E(el-el) + E(nuc-nuc)
    E(ZPE)  - the the zero temperature vibrational energy from the frequency calculation
    E(vib)  - the the finite temperature correction to E(ZPE) due to population
              of excited vibrational states
    E(rot)  - is the rotational thermal energy
    E(trans)- is the translational thermal energy

Summary of contributions to the inner energy U:
Electronic energy                ...  -1080.51597471 Eh
Zero point energy                ...      0.31063339 Eh     194.92 kcal/mol
Thermal vibrational correction   ...      0.02009280 Eh      12.61 kcal/mol
Thermal rotational correction    ...      0.00141627 Eh       0.89 kcal/mol
Thermal translational correction ...      0.00141627 Eh       0.89 kcal/mol
-----------------------------------------------------------------------
Total thermal energy                  -1080.18241599 Eh


Summary of corrections to the electronic energy:
(perhaps to be used in another calculation)
Total thermal correction                  0.02292534 Eh      14.39 kcal/mol
Non-thermal (ZPE) correction              0.31063339 Eh     194.92 kcal/mol
-----------------------------------------------------------------------
Total correction                          0.33355873 Eh     209.31 kcal/mol


--------
ENTHALPY
--------

The enthalpy is H = U + kB*T
                kB is Boltzmann's constant
Total free energy                 ...  -1080.18241599 Eh 
Thermal Enthalpy correction       ...      0.00094421 Eh       0.59 kcal/mol
-----------------------------------------------------------------------
Total Enthalpy                    ...  -1080.18147178 Eh


Note: Only C1 symmetry has been detected, increase convergence thresholds 
      if your molecule has a higher symmetry. Symmetry factor of 1.0 is   
      used for the rotational entropy correction. 
 

Note: Rotational entropy computed according to Herzberg 
Infrared and Raman Spectra, Chapter V,1, Van Nostrand Reinhold, 1945 
Point Group:  C1, Symmetry Number:   1  
Rotational constants in cm-1:     0.020499     0.002793     0.002554 

Vibrational entropy computed according to the QRRHO of S. Grimme
Chem.Eur.J. 2012 18 9955


-------
ENTROPY
-------

The entropy contributions are T*S = T*(S(el)+S(vib)+S(rot)+S(trans))
     S(el)   - electronic entropy
     S(vib)  - vibrational entropy
     S(rot)  - rotational entropy
     S(trans)- translational entropy
The entropies will be listed as multiplied by the temperature to get
units of energy

Electronic entropy                ...      0.00000000 Eh      0.00 kcal/mol
Vibrational entropy               ...      0.03671552 Eh     23.04 kcal/mol
Rotational entropy                ...      0.01694055 Eh     10.63 kcal/mol
Translational entropy             ...      0.02051977 Eh     12.88 kcal/mol
-----------------------------------------------------------------------
Final entropy term                ...      0.07417584 Eh     46.55 kcal/mol

In case the symmetry of your molecule has not been determined correctly
or in case you have a reason to use a different symmetry number we print 
out the resulting rotational entropy values for sn=1,12 :
 --------------------------------------------------------
|  sn= 1 | S(rot)=       0.01694055 Eh     10.63 kcal/mol|
|  sn= 2 | S(rot)=       0.01628609 Eh     10.22 kcal/mol|
|  sn= 3 | S(rot)=       0.01590326 Eh      9.98 kcal/mol|
|  sn= 4 | S(rot)=       0.01563164 Eh      9.81 kcal/mol|
|  sn= 5 | S(rot)=       0.01542095 Eh      9.68 kcal/mol|
|  sn= 6 | S(rot)=       0.01524881 Eh      9.57 kcal/mol|
|  sn= 7 | S(rot)=       0.01510326 Eh      9.48 kcal/mol|
|  sn= 8 | S(rot)=       0.01497718 Eh      9.40 kcal/mol|
|  sn= 9 | S(rot)=       0.01486597 Eh      9.33 kcal/mol|
|  sn=10 | S(rot)=       0.01476649 Eh      9.27 kcal/mol|
|  sn=11 | S(rot)=       0.01467650 Eh      9.21 kcal/mol|
|  sn=12 | S(rot)=       0.01459435 Eh      9.16 kcal/mol|
 --------------------------------------------------------


-------------------
GIBBS FREE ENERGY
-------------------

The Gibbs free energy is G = H - T*S

Total enthalpy                    ...  -1080.18147178 Eh 
Total entropy correction          ...     -0.07417584 Eh    -46.55 kcal/mol
-----------------------------------------------------------------------
Final Gibbs free energy         ...  -1080.25564762 Eh

For completeness - the Gibbs free energy minus the electronic energy
G-E(el)                           ...      0.26032710 Eh    163.36 kcal/mol



Timings for individual modules:

Sum of individual times         ...    57634.164 sec (= 960.569 min)
GTO integral calculation        ...       54.887 sec (=   0.915 min)   0.1 %
SCF iterations                  ...     4671.269 sec (=  77.854 min)   8.1 %
SCF Gradient evaluation         ...     1357.485 sec (=  22.625 min)   2.4 %
Geometry relaxation             ...        3.857 sec (=   0.064 min)   0.0 %
Numerical frequency calculation ...    51546.666 sec (= 859.111 min)  89.4 %
                             ****ORCA TERMINATED NORMALLY****
TOTAL RUN TIME: 0 days 15 hours 57 minutes 41 seconds 698 msec
‘Li-Aldol_freqopt.cpcm’ -> ‘/home/rothe/Calc/Li_Path/THF/Li-Aldol/Li-Aldol_freqopt.cpcm’
‘Li-Aldol_freqopt.densities’ -> ‘/home/rothe/Calc/Li_Path/THF/Li-Aldol/Li-Aldol_freqopt.densities’
‘Li-Aldol_freqopt.engrad’ -> ‘/home/rothe/Calc/Li_Path/THF/Li-Aldol/Li-Aldol_freqopt.engrad’
‘Li-Aldol_freqopt.gbw’ -> ‘/home/rothe/Calc/Li_Path/THF/Li-Aldol/Li-Aldol_freqopt.gbw’
‘Li-Aldol_freqopt.hess’ -> ‘/home/rothe/Calc/Li_Path/THF/Li-Aldol/Li-Aldol_freqopt.hess’
‘Li-Aldol_freqopt.job’ -> ‘/home/rothe/Calc/Li_Path/THF/Li-Aldol/Li-Aldol_freqopt.job’
‘Li-Aldol_freqopt.opt’ -> ‘/home/rothe/Calc/Li_Path/THF/Li-Aldol/Li-Aldol_freqopt.opt’
‘Li-Aldol_freqopt_property.txt’ -> ‘/home/rothe/Calc/Li_Path/THF/Li-Aldol/Li-Aldol_freqopt_property.txt’
‘Li-Aldol_freqopt_trj.xyz’ -> ‘/home/rothe/Calc/Li_Path/THF/Li-Aldol/Li-Aldol_freqopt_trj.xyz’
‘Li-Aldol_freqopt.xyz’ -> ‘/home/rothe/Calc/Li_Path/THF/Li-Aldol/Li-Aldol_freqopt.xyz’
