! Job execution by suborca V 5.02 !
Job started from clu.thch.uni-bonn.de, running /software/cluster/orca_5_0_2_linux_x86-64_openmpi411/orca from /software/cluster/orca_5_0_2_linux_x86-64_openmpi411 on boar227 in /tmp1/rothe/MA_freqopt__5fAHer
Going to copy the following really necessary files:  

                                 *****************
                                 * O   R   C   A *
                                 *****************

                                            #,                                       
                                            ###                                      
                                            ####                                     
                                            #####                                    
                                            ######                                   
                                           ########,                                 
                                     ,,################,,,,,                         
                               ,,#################################,,                 
                          ,,##########################################,,             
                       ,#########################################, ''#####,          
                    ,#############################################,,   '####,        
                  ,##################################################,,,,####,       
                ,###########''''           ''''###############################       
              ,#####''   ,,,,##########,,,,          '''####'''          '####       
            ,##' ,,,,###########################,,,                        '##       
           ' ,,###''''                  '''############,,,                           
         ,,##''                                '''############,,,,        ,,,,,,###''
      ,#''                                            '''#######################'''  
     '                                                          ''''####''''         
             ,#######,   #######,   ,#######,      ##                                
            ,#'     '#,  ##    ##  ,#'     '#,    #''#        ######   ,####,        
            ##       ##  ##   ,#'  ##            #'  '#       #        #'  '#        
            ##       ##  #######   ##           ,######,      #####,   #    #        
            '#,     ,#'  ##    ##  '#,     ,#' ,#      #,         ##   #,  ,#        
             '#######'   ##     ##  '#######'  #'      '#     #####' # '####'        



                  #######################################################
                  #                        -***-                        #
                  #          Department of theory and spectroscopy      #
                  #    Directorship and core code : Frank Neese         #
                  #        Max Planck Institute fuer Kohlenforschung    #
                  #                Kaiser Wilhelm Platz 1               #
                  #                 D-45470 Muelheim/Ruhr               #
                  #                      Germany                        #
                  #                                                     #
                  #                  All rights reserved                #
                  #                        -***-                        #
                  #######################################################


                         Program Version 5.0.2 -  RELEASE  -


 With contributions from (in alphabetic order):
   Daniel Aravena         : Magnetic Suceptibility
   Michael Atanasov       : Ab Initio Ligand Field Theory (pilot matlab implementation)
   Alexander A. Auer      : GIAO ZORA, VPT2 properties, NMR spectrum
   Ute Becker             : Parallelization
   Giovanni Bistoni       : ED, misc. LED, open-shell LED, HFLD
   Martin Brehm           : Molecular dynamics
   Dmytro Bykov           : SCF Hessian
   Vijay G. Chilkuri      : MRCI spin determinant printing, contributions to CSF-ICE
   Dipayan Datta          : RHF DLPNO-CCSD density
   Achintya Kumar Dutta   : EOM-CC, STEOM-CC
   Dmitry Ganyushin       : Spin-Orbit,Spin-Spin,Magnetic field MRCI
   Miquel Garcia          : C-PCM and meta-GGA Hessian, CC/C-PCM, Gaussian charge scheme
   Yang Guo               : DLPNO-NEVPT2, F12-NEVPT2, CIM, IAO-localization
   Andreas Hansen         : Spin unrestricted coupled pair/coupled cluster methods
   Benjamin Helmich-Paris : MC-RPA, TRAH-SCF, COSX integrals
   Lee Huntington         : MR-EOM, pCC
   Robert Izsak           : Overlap fitted RIJCOSX, COSX-SCS-MP3, EOM
   Marcus Kettner         : VPT2
   Christian Kollmar      : KDIIS, OOCD, Brueckner-CCSD(T), CCSD density, CASPT2, CASPT2-K
   Simone Kossmann        : Meta GGA functionals, TD-DFT gradient, OOMP2, MP2 Hessian
   Martin Krupicka        : Initial AUTO-CI
   Lucas Lang             : DCDCAS
   Marvin Lechner         : AUTO-CI (C++ implementation), FIC-MRCC
   Dagmar Lenk            : GEPOL surface, SMD
   Dimitrios Liakos       : Extrapolation schemes; Compound Job, initial MDCI parallelization
   Dimitrios Manganas     : Further ROCIS development; embedding schemes
   Dimitrios Pantazis     : SARC Basis sets
   Anastasios Papadopoulos: AUTO-CI, single reference methods and gradients
   Taras Petrenko         : DFT Hessian,TD-DFT gradient, ASA, ECA, R-Raman, ABS, FL, XAS/XES, NRVS
   Peter Pinski           : DLPNO-MP2, DLPNO-MP2 Gradient
   Christoph Reimann      : Effective Core Potentials
   Marius Retegan         : Local ZFS, SOC
   Christoph Riplinger    : Optimizer, TS searches, QM/MM, DLPNO-CCSD(T), (RO)-DLPNO pert. Triples
   Tobias Risthaus        : Range-separated hybrids, TD-DFT gradient, RPA, STAB
   Michael Roemelt        : Original ROCIS implementation
   Masaaki Saitow         : Open-shell DLPNO-CCSD energy and density
   Barbara Sandhoefer     : DKH picture change effects
   Avijit Sen             : IP-ROCIS
   Kantharuban Sivalingam : CASSCF convergence, NEVPT2, FIC-MRCI
   Bernardo de Souza      : ESD, SOC TD-DFT
   Georgi Stoychev        : AutoAux, RI-MP2 NMR, DLPNO-MP2 response
   Willem Van den Heuvel  : Paramagnetic NMR
   Boris Wezisla          : Elementary symmetry handling
   Frank Wennmohs         : Technical directorship


 We gratefully acknowledge several colleagues who have allowed us to
 interface, adapt or use parts of their codes:
   Stefan Grimme, W. Hujo, H. Kruse, P. Pracht,  : VdW corrections, initial TS optimization,
                  C. Bannwarth, S. Ehlert          DFT functionals, gCP, sTDA/sTD-DF
   Ed Valeev, F. Pavosevic, A. Kumar             : LibInt (2-el integral package), F12 methods
   Garnet Chan, S. Sharma, J. Yang, R. Olivares  : DMRG
   Ulf Ekstrom                                   : XCFun DFT Library
   Mihaly Kallay                                 : mrcc  (arbitrary order and MRCC methods)
   Jiri Pittner, Ondrej Demel                    : Mk-CCSD
   Frank Weinhold                                : gennbo (NPA and NBO analysis)
   Christopher J. Cramer and Donald G. Truhlar   : smd solvation model
   Lars Goerigk                                  : TD-DFT with DH, B97 family of functionals
   V. Asgeirsson, H. Jonsson                     : NEB implementation
   FAccTs GmbH                                   : IRC, NEB, NEB-TS, DLPNO-Multilevel, CI-OPT
                                                   MM, QMMM, 2- and 3-layer-ONIOM, Crystal-QMMM,
                                                   LR-CPCM, SF, NACMEs, symmetry and pop. for TD-DFT,
                                                   nearIR, NL-DFT gradient (VV10), updates on ESD,
                                                   ML-optimized integration grids
   S Lehtola, MJT Oliveira, MAL Marques          : LibXC Library
   Liviu Ungur et al                             : ANISO software


 Your calculation uses the libint2 library for the computation of 2-el integrals
 For citations please refer to: http://libint.valeyev.net

 Your ORCA version has been built with support for libXC version: 5.1.0
 For citations please refer to: https://tddft.org/programs/libxc/

 This ORCA versions uses:
   CBLAS   interface :  Fast vector & matrix operations
   LAPACKE interface :  Fast linear algebra routines
   SCALAPACK package :  Parallel linear algebra routines
   Shared memory     :  Shared parallel matrices
   BLAS/LAPACK       :  OpenBLAS 0.3.15  USE64BITINT DYNAMIC_ARCH NO_AFFINITY Barcelona SINGLE_THREADED
        Core in use  :  Barcelona
   Copyright (c) 2011-2014, The OpenBLAS Project


Your calculation utilizes the atom-pairwise dispersion correction
with the Becke-Johnson damping scheme (D3BJ)
Cite in your paper:
S.Grimme, S.Ehrlich, L.Goerigk, J Comput Chem, (2011), 32, 1456–1465 
S.Grimme, J.Antony, S.Ehrlich and H.Krieg, J.Chem.Phys., 132, (2010), 154104 
   

================================================================================

----- Orbital basis set information -----
Your calculation utilizes the basis: def2-TZVP
   F. Weigend and R. Ahlrichs, Phys. Chem. Chem. Phys. 7, 3297 (2005).

----- AuxJ basis set information -----
Your calculation utilizes the auxiliary basis: def2/J
   F. Weigend, Phys. Chem. Chem. Phys. 8, 1057 (2006).

================================================================================
                                        WARNINGS
                       Please study these warnings very carefully!
================================================================================


WARNING: Geometry Optimization
  ===> : Switching off AutoStart
         For restart on a previous wavefunction, please use MOREAD

INFO   : the flag for use of the SHARK integral package has been found!

================================================================================
                                       INPUT FILE
================================================================================
NAME = MA_freqopt.inp
|  1> ! TPSS D3BJ def2-TZVP RI def2/J CPCM(THF)
|  2> ! Opt numfreq Pal8
|  3> 
|  4> * xyz 0 1
|  5> C        -3.33194377753461    0.36261607685447   -0.06638433753725
|  6> C        -2.63770674659604   -0.79063048508560    0.30020558870920
|  7> C        -1.26153690988322   -0.72512612936840    0.51324170734289
|  8> C        -0.59797148007851    0.47425420321784    0.35745967037716
|  9> C        -1.29304065072129    1.63536792507405    0.01504055081676
| 10> C        -2.66756686853916    1.56242561615206   -0.20658995526411
| 11> H        -3.20956956513482    2.44999169601162   -0.49431464133051
| 12> H        -0.72264196179288   -1.61698695010619    0.79030865433185
| 13> H         0.46782349912763    0.52388643973304    0.52283642725570
| 14> C        -0.55378149717395    2.88495674188219   -0.16754176584650
| 15> H         0.28118839569508    2.81636219827588   -0.85578315257670
| 16> C        -0.79736991851233    4.06261730674274    0.42057291312230
| 17> H        -4.39610099806310    0.29421232830115   -0.23482678392579
| 18> C        -3.38924030768199   -2.05507121054582    0.44309669765135
| 19> O        -2.61446609145047   -3.08341079485230    0.80829881292163
| 20> C        -3.25571280586798   -4.34680237776749    0.96337370836359
| 21> H        -2.45858606260827   -5.06439896801061    1.13785353260507
| 22> H        -3.81752074943684   -4.59752100399519    0.06136210828512
| 23> H        -3.94349517765349   -4.31788426826475    1.81100398540055
| 24> O        -4.58183185495114   -2.17031002331911    0.24806437619192
| 25> C        -1.82094987051844    4.30449083313377    1.45030212671749
| 26> H        -0.19838943908596    4.91741193115361    0.14565013480797
| 27> C        -2.05068810548931    5.73282615808446    1.80333448501833
| 28> O        -2.45621591319682    3.41527669402483    1.99537338818821
| 29> C        -1.01030441554725    6.65453062301067    1.92854792390583
| 30> C        -1.29572008579021    7.95687104592321    2.28901573070985
| 31> C        -2.60018257897186    8.37169956403539    2.50852810213751
| 32> C        -3.64435810107720    7.45871764770722    2.38941389169286
| 33> C        -3.35516275980890    6.13715705897922    2.05129688174487
| 34> H        -4.16401041511882    5.42706969128063    1.97374196322995
| 35> H        -2.78767740334369    9.39895796967160    2.77642606428649
| 36> H         0.01462848896654    6.35026418365145    1.78816849605414
| 37> H        -0.49237666355743    8.66948730507583    2.40052873975218
| 38> O        -4.95905587700351    7.74614499351635    2.58277905596296
| 39> C        -5.32259332864083    9.06555654833478    2.93779634716306
| 40> H        -4.87830266408921    9.35670623848867    3.89419438397735
| 41> H        -6.40686732352518    9.05060921847524    3.03107801870873
| 42> H        -5.03302079114410    9.78039480382322    2.16191461975029
| 43> *
| 44> 
| 45>                          ****END OF INPUT****
================================================================================

                       *****************************
                       * Geometry Optimization Run *
                       *****************************

Geometry optimization settings:
Update method            Update   .... BFGS
Choice of coordinates    CoordSys .... Z-matrix Internals
Initial Hessian          InHess   .... Almoef's Model

Convergence Tolerances:
Energy Change            TolE     ....  5.0000e-06 Eh
Max. Gradient            TolMAXG  ....  3.0000e-04 Eh/bohr
RMS Gradient             TolRMSG  ....  1.0000e-04 Eh/bohr
Max. Displacement        TolMAXD  ....  4.0000e-03 bohr
RMS Displacement         TolRMSD  ....  2.0000e-03 bohr
Strict Convergence                ....  False
------------------------------------------------------------------------------
                        ORCA OPTIMIZATION COORDINATE SETUP
------------------------------------------------------------------------------

The optimization will be done in new redundant internal coordinates
Making redundant internal coordinates   ...  (new redundants) done
Evaluating the initial hessian          ...  (Almloef) done
Evaluating the coordinates              ...  done
Calculating the B-matrix                .... done
Calculating the G-matrix                .... done
Diagonalizing the G-matrix              .... done
Small eigenvalue found = 1.006e-03
Small eigenvalue found = 5.553e-03
Small eigenvalue found = 9.743e-03
Small eigenvalue found = 1.235e-02
Small eigenvalue found = 1.653e-02
Small eigenvalue found = 2.468e-02
The first mode is                       ....   71
The number of degrees of freedom        ....  108

    -----------------------------------------------------------------
                    Redundant Internal Coordinates


    -----------------------------------------------------------------
         Definition                    Initial Value    Approx d2E/dq
    -----------------------------------------------------------------
      1. B(C   1,C   0)                  1.3951         0.613178   
      2. B(C   2,C   1)                  1.3941         0.615453   
      3. B(C   3,C   2)                  1.3795         0.649298   
      4. B(C   4,C   3)                  1.3959         0.611384   
      5. B(C   5,C   4)                  1.3942         0.615255   
      6. B(C   5,C   0)                  1.3786         0.651467   
      7. B(H   6,C   5)                  1.0790         0.374895   
      8. B(H   7,C   2)                  1.0782         0.376006   
      9. B(H   8,C   3)                  1.0797         0.374000   
     10. B(C   9,C   4)                  1.4633         0.477262   
     11. B(H  10,C   9)                  1.0842         0.367814   
     12. B(C  11,C   9)                  1.3387         0.754390   
     13. B(H  12,C   0)                  1.0796         0.374158   
     14. B(C  13,C   1)                  1.4778         0.452465   
     15. B(O  14,C  13)                  1.3383         0.676566   
     16. B(C  15,O  14)                  1.4253         0.491586   
     17. B(H  16,C  15)                  1.0866         0.364565   
     18. B(H  17,C  15)                  1.0918         0.357675   
     19. B(H  18,C  15)                  1.0920         0.357528   
     20. B(O  19,C  13)                  1.2139         1.068578   
     21. B(C  20,C  11)                  1.4719         0.462417   
     22. B(H  21,C  11)                  1.0794         0.374444   
     23. B(C  22,C  20)                  1.4891         0.434069   
     24. B(O  23,C  20)                  1.2212         1.040304   
     25. B(C  24,C  22)                  1.3956         0.612142   
     26. B(C  25,C  24)                  1.3811         0.645517   
     27. B(C  26,C  25)                  1.3863         0.633294   
     28. B(C  27,C  26)                  1.3921         0.619926   
     29. B(C  28,C  27)                  1.3944         0.614675   
     30. B(C  28,C  22)                  1.3880         0.629338   
     31. B(H  29,C  28)                  1.0791         0.374801   
     32. B(H  30,C  26)                  1.0780         0.376266   
     33. B(H  31,C  24)                  1.0783         0.375889   
     34. B(H  32,C  25)                  1.0796         0.374072   
     35. B(O  33,C  27)                  1.3596         0.625781   
     36. B(C  34,O  33)                  1.4139         0.512606   
     37. B(H  35,C  34)                  1.0940         0.354833   
     38. B(H  36,C  34)                  1.0884         0.362247   
     39. B(H  37,C  34)                  1.0940         0.354846   
     40. A(C   1,C   0,C   5)          120.4197         0.437082   
     41. A(C   5,C   0,H  12)          120.9512         0.358206   
     42. A(C   1,C   0,H  12)          118.6290         0.354541   
     43. A(C   0,C   1,C  13)          118.6603         0.409516   
     44. A(C   0,C   1,C   2)          119.5073         0.432630   
     45. A(C   2,C   1,C  13)          121.8312         0.409785   
     46. A(C   3,C   2,H   7)          120.5138         0.358303   
     47. A(C   1,C   2,H   7)          119.5885         0.355060   
     48. A(C   1,C   2,C   3)          119.8953         0.437111   
     49. A(C   4,C   3,H   8)          119.3972         0.354339   
     50. A(C   2,C   3,H   8)          119.8339         0.357977   
     51. A(C   2,C   3,C   4)          120.7549         0.436588   
     52. A(C   5,C   4,C   9)          121.5276         0.413659   
     53. A(C   3,C   4,C   9)          119.2986         0.413195   
     54. A(C   3,C   4,C   5)          119.1034         0.432377   
     55. A(C   0,C   5,H   6)          120.0607         0.358326   
     56. A(C   4,C   5,H   6)          119.6414         0.354862   
     57. A(C   0,C   5,C   4)          120.2971         0.437348   
     58. A(C   4,C   9,H  10)          114.4707         0.338930   
     59. A(H  10,C   9,C  11)          118.3367         0.366219   
     60. A(C   4,C   9,C  11)          127.1913         0.428991   
     61. A(C  20,C  11,H  21)          115.7190         0.338154   
     62. A(C   9,C  11,H  21)          118.9341         0.367342   
     63. A(C   9,C  11,C  20)          125.3404         0.426568   
     64. A(O  14,C  13,O  19)          122.6591         0.480577   
     65. A(C   1,C  13,O  19)          124.4223         0.449461   
     66. A(C   1,C  13,O  14)          112.9177         0.414036   
     67. A(C  13,O  14,C  15)          116.7652         0.417469   
     68. A(H  17,C  15,H  18)          108.8612         0.290204   
     69. A(H  16,C  15,H  18)          110.7871         0.291075   
     70. A(O  14,C  15,H  18)          110.1432         0.336941   
     71. A(O  14,C  15,H  16)          105.8311         0.338037   
     72. A(H  16,C  15,H  17)          111.0061         0.291094   
     73. A(O  14,C  15,H  17)          110.1918         0.336964   
     74. A(C  22,C  20,O  23)          120.8198         0.443930   
     75. A(C  11,C  20,O  23)          123.6652         0.449049   
     76. A(C  11,C  20,C  22)          115.5150         0.386873   
     77. A(C  24,C  22,C  28)          119.4852         0.434237   
     78. A(C  20,C  22,C  28)          117.8231         0.408394   
     79. A(C  20,C  22,C  24)          122.6660         0.406398   
     80. A(C  22,C  24,H  31)          120.7001         0.354716   
     81. A(C  25,C  24,H  31)          119.7670         0.357928   
     82. A(C  22,C  24,C  25)          119.4811         0.436226   
     83. A(C  26,C  25,H  32)          119.0969         0.356474   
     84. A(C  24,C  25,H  32)          119.7087         0.357634   
     85. A(C  24,C  25,C  26)          121.1942         0.438907   
     86. A(C  27,C  26,H  30)          121.0464         0.355538   
     87. A(C  25,C  26,H  30)          119.2179         0.356828   
     88. A(C  25,C  26,C  27)          119.7343         0.435718   
     89. A(C  28,C  27,O  33)          115.8102         0.431277   
     90. A(C  26,C  27,O  33)          125.0635         0.431937   
     91. A(C  26,C  27,C  28)          119.1259         0.433384   
     92. A(C  27,C  28,H  29)          119.0527         0.354790   
     93. A(C  22,C  28,H  29)          119.9940         0.356213   
     94. A(C  22,C  28,C  27)          120.9504         0.434560   
     95. A(C  27,O  33,C  34)          118.7921         0.414792   
     96. A(H  36,C  34,H  37)          109.4783         0.290440   
     97. A(H  35,C  34,H  37)          109.7926         0.289499   
     98. A(O  33,C  34,H  37)          111.3228         0.338875   
     99. A(H  35,C  34,H  36)          109.4697         0.290438   
    100. A(O  33,C  34,H  36)          105.3584         0.340046   
    101. A(O  33,C  34,H  35)          111.3116         0.338873   
    102. D(C   2,C   1,C   0,C   5)     -0.5630         0.025983   
    103. D(C   2,C   1,C   0,H  12)    179.5577         0.025983   
    104. D(C  13,C   1,C   0,C   5)    179.8267         0.025983   
    105. D(C  13,C   1,C   0,H  12)     -0.0526         0.025983   
    106. D(H   7,C   2,C   1,C   0)   -179.6012         0.026188   
    107. D(C   3,C   2,C   1,C  13)    179.4393         0.026188   
    108. D(C   3,C   2,C   1,C   0)     -0.1583         0.026188   
    109. D(H   7,C   2,C   1,C  13)     -0.0037         0.026188   
    110. D(H   8,C   3,C   2,C   1)    179.9915         0.029349   
    111. D(H   8,C   3,C   2,H   7)     -0.5708         0.029349   
    112. D(C   4,C   3,C   2,C   1)      1.3596         0.029349   
    113. D(C   4,C   3,C   2,H   7)   -179.2027         0.029349   
    114. D(C   9,C   4,C   3,C   2)   -178.8186         0.025822   
    115. D(C   5,C   4,C   3,H   8)    179.5396         0.025822   
    116. D(C   5,C   4,C   3,C   2)     -1.8226         0.025822   
    117. D(C   9,C   4,C   3,H   8)      2.5436         0.025822   
    118. D(H   6,C   5,C   4,C   9)     -1.6449         0.026170   
    119. D(C   0,C   5,C   4,C   9)    178.0181         0.026170   
    120. D(C   0,C   5,C   4,C   3)      1.0916         0.026170   
    121. D(H   6,C   5,C   0,H  12)     -0.3748         0.029560   
    122. D(C   4,C   5,C   0,C   1)      0.0871         0.029560   
    123. D(H   6,C   5,C   4,C   3)   -178.5714         0.026170   
    124. D(H   6,C   5,C   0,C   1)    179.7487         0.029560   
    125. D(C   4,C   5,C   0,H  12)    179.9636         0.029560   
    126. D(C  11,C   9,C   4,C   5)     56.0092         0.015508   
    127. D(C  11,C   9,C   4,C   3)   -127.0701         0.015508   
    128. D(H  10,C   9,C   4,C   5)   -124.4096         0.015508   
    129. D(H  10,C   9,C   4,C   3)     52.5111         0.015508   
    130. D(H  21,C  11,C   9,C   4)   -176.5906         0.040632   
    131. D(C  20,C  11,C   9,H  10)   -175.1841         0.040632   
    132. D(C  20,C  11,C   9,C   4)      4.3828         0.040632   
    133. D(H  21,C  11,C   9,H  10)      3.8425         0.040632   
    134. D(O  19,C  13,C   1,C   2)   -178.7424         0.013953   
    135. D(O  19,C  13,C   1,C   0)      0.8584         0.013953   
    136. D(O  14,C  13,C   1,C   2)      0.9213         0.013953   
    137. D(O  14,C  13,C   1,C   0)   -179.4779         0.013953   
    138. D(C  15,O  14,C  13,O  19)     -0.0091         0.034063   
    139. D(C  15,O  14,C  13,C   1)   -179.6795         0.034063   
    140. D(H  18,C  15,O  14,C  13)    -66.9471         0.019086   
    141. D(H  17,C  15,O  14,C  13)     53.1710         0.019086   
    142. D(H  16,C  15,O  14,C  13)    173.2558         0.019086   
    143. D(O  23,C  20,C  11,H  21)   -169.9973         0.014564   
    144. D(O  23,C  20,C  11,C   9)      9.0570         0.014564   
    145. D(C  22,C  20,C  11,H  21)     10.0746         0.014564   
    146. D(C  22,C  20,C  11,C   9)   -170.8710         0.014564   
    147. D(C  28,C  22,C  20,O  23)    -38.3488         0.012866   
    148. D(C  28,C  22,C  20,C  11)    141.5815         0.012866   
    149. D(C  24,C  22,C  20,O  23)    139.7919         0.012866   
    150. D(C  24,C  22,C  20,C  11)    -40.2779         0.012866   
    151. D(H  31,C  24,C  22,C  28)    176.9674         0.025890   
    152. D(H  31,C  24,C  22,C  20)     -1.1435         0.025890   
    153. D(C  25,C  24,C  22,C  28)     -0.4080         0.025890   
    154. D(C  25,C  24,C  22,C  20)   -178.5189         0.025890   
    155. D(H  32,C  25,C  24,H  31)      1.7397         0.028985   
    156. D(H  32,C  25,C  24,C  22)    179.1399         0.028985   
    157. D(C  26,C  25,C  24,H  31)   -178.4342         0.028985   
    158. D(C  26,C  25,C  24,C  22)     -1.0340         0.028985   
    159. D(H  30,C  26,C  25,H  32)      0.6019         0.027826   
    160. D(H  30,C  26,C  25,C  24)   -179.2252         0.027826   
    161. D(C  27,C  26,C  25,H  32)   -178.9726         0.027826   
    162. D(C  27,C  26,C  25,C  24)      1.2003         0.027826   
    163. D(C  28,C  27,C  26,H  30)   -179.4882         0.026593   
    164. D(C  28,C  27,C  26,C  25)      0.0783         0.026593   
    165. D(O  33,C  27,C  26,H  30)      0.2803         0.026593   
    166. D(O  33,C  27,C  26,C  25)    179.8468         0.026593   
    167. D(H  29,C  28,C  27,O  33)     -0.6958         0.026117   
    168. D(H  29,C  28,C  27,C  26)    179.0938         0.026117   
    169. D(C  22,C  28,C  27,O  33)    178.6882         0.026117   
    170. D(C  22,C  28,C  27,C  26)     -1.5223         0.026117   
    171. D(H  29,C  28,C  22,C  24)   -178.9315         0.027458   
    172. D(H  29,C  28,C  22,C  20)     -0.7296         0.027458   
    173. D(C  27,C  28,C  22,C  24)      1.6903         0.027458   
    174. D(C  27,C  28,C  22,C  20)    179.8922         0.027458   
    175. D(C  34,O  33,C  27,C  28)    179.5388         0.028770   
    176. D(C  34,O  33,C  27,C  26)     -0.2366         0.028770   
    177. D(H  37,C  34,O  33,C  27)     61.1583         0.020809   
    178. D(H  36,C  34,O  33,C  27)    179.7407         0.020809   
    179. D(H  35,C  34,O  33,C  27)    -61.6930         0.020809   
    -----------------------------------------------------------------

Number of atoms                         .... 38
Number of degrees of freedom            .... 179

         *************************************************************
         *                GEOMETRY OPTIMIZATION CYCLE   1            *
         *************************************************************
---------------------------------
CARTESIAN COORDINATES (ANGSTROEM)
---------------------------------
  C     -3.331944    0.362616   -0.066384
  C     -2.637707   -0.790630    0.300206
  C     -1.261537   -0.725126    0.513242
  C     -0.597971    0.474254    0.357460
  C     -1.293041    1.635368    0.015041
  C     -2.667567    1.562426   -0.206590
  H     -3.209570    2.449992   -0.494315
  H     -0.722642   -1.616987    0.790309
  H      0.467823    0.523886    0.522836
  C     -0.553781    2.884957   -0.167542
  H      0.281188    2.816362   -0.855783
  C     -0.797370    4.062617    0.420573
  H     -4.396101    0.294212   -0.234827
  C     -3.389240   -2.055071    0.443097
  O     -2.614466   -3.083411    0.808299
  C     -3.255713   -4.346802    0.963374
  H     -2.458586   -5.064399    1.137854
  H     -3.817521   -4.597521    0.061362
  H     -3.943495   -4.317884    1.811004
  O     -4.581832   -2.170310    0.248064
  C     -1.820950    4.304491    1.450302
  H     -0.198389    4.917412    0.145650
  C     -2.050688    5.732826    1.803334
  O     -2.456216    3.415277    1.995373
  C     -1.010304    6.654531    1.928548
  C     -1.295720    7.956871    2.289016
  C     -2.600183    8.371700    2.508528
  C     -3.644358    7.458718    2.389414
  C     -3.355163    6.137157    2.051297
  H     -4.164010    5.427070    1.973742
  H     -2.787677    9.398958    2.776426
  H      0.014628    6.350264    1.788168
  H     -0.492377    8.669487    2.400529
  O     -4.959056    7.746145    2.582779
  C     -5.322593    9.065557    2.937796
  H     -4.878303    9.356706    3.894194
  H     -6.406867    9.050609    3.031078
  H     -5.033021    9.780395    2.161915

----------------------------
CARTESIAN COORDINATES (A.U.)
----------------------------
  NO LB      ZA    FRAG     MASS         X           Y           Z
   0 C     6.0000    0    12.011   -6.296461    0.685245   -0.125448
   1 C     6.0000    0    12.011   -4.984543   -1.494075    0.567306
   2 C     6.0000    0    12.011   -2.383959   -1.370290    0.969886
   3 C     6.0000    0    12.011   -1.130002    0.896211    0.675501
   4 C     6.0000    0    12.011   -2.443493    3.090398    0.028423
   5 C     6.0000    0    12.011   -5.040971    2.952557   -0.390398
   6 H     1.0000    0     1.008   -6.065207    4.629813   -0.934119
   7 H     1.0000    0     1.008   -1.365595   -3.055662    1.493467
   8 H     1.0000    0     1.008    0.884058    0.990002    0.988018
   9 C     6.0000    0    12.011   -1.046495    5.451778   -0.316608
  10 H     1.0000    0     1.008    0.531369    5.322153   -1.617196
  11 C     6.0000    0    12.011   -1.506811    7.677234    0.794768
  12 H     1.0000    0     1.008   -8.307427    0.555981   -0.443758
  13 C     6.0000    0    12.011   -6.404736   -3.883522    0.837331
  14 O     8.0000    0    15.999   -4.940625   -5.826802    1.527463
  15 C     6.0000    0    12.011   -6.152406   -8.214266    1.820512
  16 H     1.0000    0     1.008   -4.646054   -9.570327    2.150232
  17 H     1.0000    0     1.008   -7.214069   -8.688056    0.115958
  18 H     1.0000    0     1.008   -7.452126   -8.159619    3.422302
  19 O     8.0000    0    15.999   -8.658407   -4.101292    0.468774
  20 C     6.0000    0    12.011   -3.441097    8.134309    2.740674
  21 H     1.0000    0     1.008   -0.374902    9.292562    0.275239
  22 C     6.0000    0    12.011   -3.875239   10.833471    3.407808
  23 O     8.0000    0    15.999   -4.641575    6.453938    3.770709
  24 C     6.0000    0    12.011   -1.909199   12.575240    3.644427
  25 C     6.0000    0    12.011   -2.448556   15.036307    4.325613
  26 C     6.0000    0    12.011   -4.913633   15.820219    4.740431
  27 C     6.0000    0    12.011   -6.886839   14.094934    4.515338
  28 C     6.0000    0    12.011   -6.340339   11.597546    3.876389
  29 H     1.0000    0     1.008   -7.868839   10.255675    3.729832
  30 H     1.0000    0     1.008   -5.267947   17.761457    5.246685
  31 H     1.0000    0     1.008    0.027644   12.000260    3.379149
  32 H     1.0000    0     1.008   -0.930457   16.382957    4.536342
  33 O     8.0000    0    15.999   -9.371257   14.638093    4.880745
  34 C     6.0000    0    12.011  -10.058244   17.131419    5.551631
  35 H     1.0000    0     1.008   -9.218656   17.681612    7.358961
  36 H     1.0000    0     1.008  -12.107225   17.103173    5.727907
  37 H     1.0000    0     1.008   -9.511031   18.482268    4.085427

--------------------------------
INTERNAL COORDINATES (ANGSTROEM)
--------------------------------
 C      0   0   0     0.000000000000     0.00000000     0.00000000
 C      1   0   0     1.395109623570     0.00000000     0.00000000
 C      2   1   0     1.394101369320   119.50730337     0.00000000
 C      3   2   1     1.379529015595   119.89528865   359.84174353
 C      4   3   2     1.395907260709   120.75489958     1.35958591
 C      1   2   3     1.378621493753   120.41969499   359.43702994
 H      6   1   2     1.079039371018   120.06065291   179.74867018
 H      3   2   1     1.078234474388   119.58850579   180.39879244
 H      4   3   2     1.079690589159   119.83391023   179.99147259
 C      5   4   3     1.463322455768   119.29855255   181.18139539
 H     10   5   4     1.084230667256   114.47068510    52.51107468
 C     10   5   4     1.338692870175   127.19134092   232.92989302
 H      1   2   3     1.079575157441   118.62904115   179.55769709
 C      2   1   3     1.477846714195   118.66031665   180.38968872
 O     14   2   1     1.338331039686   112.91766452   180.52212364
 C     15  14   2     1.425273259319   116.76516163   180.32045967
 H     16  15  14     1.086645811760   105.83111785   173.25578910
 H     16  15  14     1.091839238016   110.19182043    53.17099541
 H     16  15  14     1.091951434152   110.14320130   293.05294971
 O     14   2   1     1.213916055171   124.42230926     0.85844348
 C     12  10   5     1.471924242021   125.34040720     4.38284258
 H     12  10   5     1.079367406721   118.93408159   183.40936162
 C     21  12  10     1.489145158511   115.51502004   189.12899071
 O     21  12  10     1.221215546189   123.66517174     9.05702350
 C     23  21  12     1.395570044190   122.66595505   319.72212104
 C     25  23  21     1.381119010699   119.48106758   181.48105290
 C     26  25  23     1.386322753462   121.19422345   358.96602451
 C     27  26  25     1.392130272509   119.73429964     1.20028729
 C     23  21  12     1.388028440404   117.82308641   141.58145248
 H     29  23  21     1.079107670555   119.99400313   359.27039866
 H     27  26  25     1.078046130386   119.21787657   180.77477181
 H     25  23  21     1.078319019882   120.70007844   358.85645555
 H     26  25  23     1.079637780943   119.70869252   179.13993660
 O     28  27  26     1.359571553063   125.06352106   179.84682045
 C     34  28  27     1.413875385875   118.79206523   359.76344334
 H     35  34  28     1.094010759319   111.31163604   298.30700542
 H     35  34  28     1.088381821283   105.35836223   179.74074426
 H     35  34  28     1.094001115591   111.32281359    61.15826534

---------------------------
INTERNAL COORDINATES (A.U.)
---------------------------
 C      0   0   0     0.000000000000     0.00000000     0.00000000
 C      1   0   0     2.636375115346     0.00000000     0.00000000
 C      2   1   0     2.634469790939   119.50730337     0.00000000
 C      3   2   1     2.606932033272   119.89528865   359.84174353
 C      4   3   2     2.637882431093   120.75489958     1.35958591
 C      1   2   3     2.605217065531   120.41969499   359.43702994
 H      6   1   2     2.039088898942   120.06065291   179.74867018
 H      3   2   1     2.037567864745   119.58850579   180.39879244
 H      4   3   2     2.040319522882   119.83391023   179.99147259
 C      5   4   3     2.765278687018   119.29855255   181.18139539
 H     10   5   4     2.048899027113   114.47068510    52.51107468
 C     10   5   4     2.529762902063   127.19134092   232.92989302
 H      1   2   3     2.040101388549   118.62904115   179.55769709
 C      2   1   3     2.792725557743   118.66031665   180.38968872
 O     14   2   1     2.529079141532   112.91766452   180.52212364
 C     15  14   2     2.693376126113   116.76516163   180.32045967
 H     16  15  14     2.053462988799   105.83111785   173.25578910
 H     16  15  14     2.063277142119   110.19182043    53.17099541
 H     16  15  14     2.063489162089   110.14320130   293.05294971
 O     14   2   1     2.293968893843   124.42230926     0.85844348
 C     12  10   5     2.781533707299   125.34040720     4.38284258
 H     12  10   5     2.039708796583   118.93408159   183.40936162
 C     21  12  10     2.814076523241   115.51502004   189.12899071
 O     21  12  10     2.307762932784   123.66517174     9.05702350
 C     23  21  12     2.637245184223   122.66595505   319.72212104
 C     25  23  21     2.609936688573   119.48106758   181.48105290
 C     26  25  23     2.619770337267   121.19422345   358.96602451
 C     27  26  25     2.630744957783   119.73429964     1.20028729
 C     23  21  12     2.622993618458   117.82308641   141.58145248
 H     29  23  21     2.039217966363   119.99400313   359.27039866
 H     27  26  25     2.037211946163   119.21787657   180.77477181
 H     25  23  21     2.037727632575   120.70007844   358.85645555
 H     26  25  23     2.040219729816   119.70869252   179.13993660
 O     28  27  26     2.569217894759   125.06352106   179.84682045
 C     34  28  27     2.671837266795   118.79206523   359.76344334
 H     35  34  28     2.067380722677   111.31163604   298.30700542
 H     35  34  28     2.056743571363   105.35836223   179.74074426
 H     35  34  28     2.067362498672   111.32281359    61.15826534

---------------------
BASIS SET INFORMATION
---------------------
There are 3 groups of distinct atoms

 Group   1 Type C   : 11s6p2d1f contracted to 5s3p2d1f pattern {62111/411/11/1}
 Group   2 Type H   : 5s1p contracted to 3s1p pattern {311/1}
 Group   3 Type O   : 11s6p2d1f contracted to 5s3p2d1f pattern {62111/411/11/1}

Atom   0C    basis set group =>   1
Atom   1C    basis set group =>   1
Atom   2C    basis set group =>   1
Atom   3C    basis set group =>   1
Atom   4C    basis set group =>   1
Atom   5C    basis set group =>   1
Atom   6H    basis set group =>   2
Atom   7H    basis set group =>   2
Atom   8H    basis set group =>   2
Atom   9C    basis set group =>   1
Atom  10H    basis set group =>   2
Atom  11C    basis set group =>   1
Atom  12H    basis set group =>   2
Atom  13C    basis set group =>   1
Atom  14O    basis set group =>   3
Atom  15C    basis set group =>   1
Atom  16H    basis set group =>   2
Atom  17H    basis set group =>   2
Atom  18H    basis set group =>   2
Atom  19O    basis set group =>   3
Atom  20C    basis set group =>   1
Atom  21H    basis set group =>   2
Atom  22C    basis set group =>   1
Atom  23O    basis set group =>   3
Atom  24C    basis set group =>   1
Atom  25C    basis set group =>   1
Atom  26C    basis set group =>   1
Atom  27C    basis set group =>   1
Atom  28C    basis set group =>   1
Atom  29H    basis set group =>   2
Atom  30H    basis set group =>   2
Atom  31H    basis set group =>   2
Atom  32H    basis set group =>   2
Atom  33O    basis set group =>   3
Atom  34C    basis set group =>   1
Atom  35H    basis set group =>   2
Atom  36H    basis set group =>   2
Atom  37H    basis set group =>   2
---------------------------------
AUXILIARY/J BASIS SET INFORMATION
---------------------------------
There are 3 groups of distinct atoms

 Group   1 Type C   : 12s5p4d2f1g contracted to 6s4p3d1f1g pattern {711111/2111/211/2/1}
 Group   2 Type H   : 5s2p1d contracted to 3s1p1d pattern {311/2/1}
 Group   3 Type O   : 12s5p4d2f1g contracted to 6s4p3d1f1g pattern {711111/2111/211/2/1}

Atom   0C    basis set group =>   1
Atom   1C    basis set group =>   1
Atom   2C    basis set group =>   1
Atom   3C    basis set group =>   1
Atom   4C    basis set group =>   1
Atom   5C    basis set group =>   1
Atom   6H    basis set group =>   2
Atom   7H    basis set group =>   2
Atom   8H    basis set group =>   2
Atom   9C    basis set group =>   1
Atom  10H    basis set group =>   2
Atom  11C    basis set group =>   1
Atom  12H    basis set group =>   2
Atom  13C    basis set group =>   1
Atom  14O    basis set group =>   3
Atom  15C    basis set group =>   1
Atom  16H    basis set group =>   2
Atom  17H    basis set group =>   2
Atom  18H    basis set group =>   2
Atom  19O    basis set group =>   3
Atom  20C    basis set group =>   1
Atom  21H    basis set group =>   2
Atom  22C    basis set group =>   1
Atom  23O    basis set group =>   3
Atom  24C    basis set group =>   1
Atom  25C    basis set group =>   1
Atom  26C    basis set group =>   1
Atom  27C    basis set group =>   1
Atom  28C    basis set group =>   1
Atom  29H    basis set group =>   2
Atom  30H    basis set group =>   2
Atom  31H    basis set group =>   2
Atom  32H    basis set group =>   2
Atom  33O    basis set group =>   3
Atom  34C    basis set group =>   1
Atom  35H    basis set group =>   2
Atom  36H    basis set group =>   2
Atom  37H    basis set group =>   2


           ************************************************************
           *        Program running with 8 parallel MPI-processes     *
           *              working on a common directory               *
           ************************************************************
------------------------------------------------------------------------------
                           ORCA GTO INTEGRAL CALCULATION
                           -- RI-GTO INTEGRALS CHOSEN --
------------------------------------------------------------------------------
------------------------------------------------------------------------------
                   ___                                                        
                  /   \      - P O W E R E D   B Y -                         
                 /     \                                                     
                 |  |  |   _    _      __       _____    __    __             
                 |  |  |  | |  | |    /  \     |  _  \  |  |  /  |          
                  \  \/   | |  | |   /    \    | | | |  |  | /  /          
                 / \  \   | |__| |  /  /\  \   | |_| |  |  |/  /          
                |  |  |   |  __  | /  /__\  \  |    /   |      \           
                |  |  |   | |  | | |   __   |  |    \   |  |\   \          
                \     /   | |  | | |  |  |  |  | |\  \  |  | \   \       
                 \___/    |_|  |_| |__|  |__|  |_| \__\ |__|  \__/        
                                                                              
                      - O R C A' S   B I G   F R I E N D -                    
                                      &                                       
                       - I N T E G R A L  F E E D E R -                       
                                                                              
 v1 FN, 2020, v2 2021                                                         
------------------------------------------------------------------------------


Reading SHARK input file MA_freqopt.SHARKINP.tmp ... ok
----------------------
SHARK INTEGRAL PACKAGE
----------------------

Number of atoms                             ...     38
Number of basis functions                   ...    778
Number of shells                            ...    306
Maximum angular momentum                    ...      3
Integral batch strategy                     ... SHARK/LIBINT Hybrid
RI-J (if used) integral strategy            ... SPLIT-RIJ (Revised 2003 algorithm where possible)
Printlevel                                  ...      1
Contraction scheme used                     ... SEGMENTED contraction
Coulomb Range Separation                    ... NOT USED
Exchange Range Separation                   ... NOT USED
Finite Nucleus Model                        ... NOT USED
Auxiliary Coulomb fitting basis             ... AVAILABLE
   # of basis functions in Aux-J            ...   1254
   # of shells in Aux-J                     ...    410
   Maximum angular momentum in Aux-J        ...      4
Auxiliary J/K fitting basis                 ... NOT available
Auxiliary Correlation fitting basis         ... NOT available
Auxiliary 'external' fitting basis          ... NOT available
Integral threshold                          ...     2.500000e-11
Primitive cut-off                           ...     2.500000e-12
Primitive pair pre-selection threshold      ...     2.500000e-12

Calculating pre-screening integrals         ... done (  0.2 sec) Dimension = 306
Organizing shell pair data                  ... done (  0.8 sec)
Shell pair information
Total number of shell pairs                 ...     46971
Shell pairs after pre-screening             ...     28225
Total number of primitive shell pairs       ...    144448
Primitive shell pairs kept                  ...     58415
          la=0 lb=0:   7172 shell pairs
          la=1 lb=0:   8156 shell pairs
          la=1 lb=1:   2339 shell pairs
          la=2 lb=0:   4009 shell pairs
          la=2 lb=1:   2309 shell pairs
          la=2 lb=2:    578 shell pairs
          la=3 lb=0:   1897 shell pairs
          la=3 lb=1:   1104 shell pairs
          la=3 lb=2:    527 shell pairs
          la=3 lb=3:    134 shell pairs

Calculating one electron integrals          ... done (  0.2 sec)
Calculating RI/J V-Matrix + Cholesky decomp.... done (  0.3 sec)
Calculating Nuclear repulsion               ... done (  0.0 sec) ENN=   1590.353308400124 Eh

SHARK setup successfully completed in   2.3 seconds

Maximum memory used throughout the entire GTOINT-calculation: 46.2 MB


           ************************************************************
           *        Program running with 8 parallel MPI-processes     *
           *              working on a common directory               *
           ************************************************************
-------------------------------------------------------------------------------
                                 ORCA SCF
-------------------------------------------------------------------------------

------------
SCF SETTINGS
------------
Hamiltonian:
 Density Functional     Method          .... DFT(GTOs)
 Exchange Functional    Exchange        .... TPSS
 Correlation Functional Correlation     .... TPSS
 LDA part of GGA corr.  LDAOpt          .... PW91-LDA
 Gradients option       PostSCFGGA      .... off
   Density functional embedding theory  .... OFF
   NL short-range parameter             ....  5.000000
 RI-approximation to the Coulomb term is turned on
   Number of AuxJ basis functions       .... 1254


General Settings:
 Integral files         IntName         .... MA_freqopt
 Hartree-Fock type      HFTyp           .... RHF
 Total Charge           Charge          ....    0
 Multiplicity           Mult            ....    1
 Number of Electrons    NEL             ....  156
 Basis Dimension        Dim             ....  778
 Nuclear Repulsion      ENuc            ....   1590.3533084001 Eh

Convergence Acceleration:
 DIIS                   CNVDIIS         .... on
   Start iteration      DIISMaxIt       ....    12
   Startup error        DIISStart       ....  0.200000
   # of expansion vecs  DIISMaxEq       ....     5
   Bias factor          DIISBfac        ....   1.050
   Max. coefficient     DIISMaxC        ....  10.000
 Trust-Rad. Augm. Hess. CNVTRAH         .... auto
   Auto Start mean grad. ratio tolernc. ....  1.125000
   Auto Start start iteration           ....    20
   Auto Start num. interpolation iter.  ....    10
   Max. Number of Micro iterations      ....    16
   Max. Number of Macro iterations      .... Maxiter - #DIIS iter
   Number of Davidson start vectors     ....     2
   Converg. threshold I  (grad. norm)   ....   1.000e-05
   Converg. threshold II (energy diff.) ....   1.000e-08
   Grad. Scal. Fac. for Micro threshold ....   0.100
   Minimum threshold for Micro iter.    ....   0.010
   NR start threshold (gradient norm)   ....   0.001
   Initial trust radius                 ....   0.400
   Minimum AH scaling param. (alpha)    ....   1.000
   Maximum AH scaling param. (alpha)    .... 1000.000
   Orbital update algorithm             .... Taylor
   White noise on init. David. guess    .... on
   Maximum white noise                  ....   0.010
   Quad. conv. algorithm                .... NR
 SOSCF                  CNVSOSCF        .... on
   Start iteration      SOSCFMaxIt      ....   150
   Startup grad/error   SOSCFStart      ....  0.003300
 Level Shifting         CNVShift        .... on
   Level shift para.    LevelShift      ....    0.2500
   Turn off err/grad.   ShiftErr        ....    0.0010
 Zerner damping         CNVZerner       .... off
 Static damping         CNVDamp         .... on
   Fraction old density DampFac         ....    0.7000
   Max. Damping (<1)    DampMax         ....    0.9800
   Min. Damping (>=0)   DampMin         ....    0.0000
   Turn off err/grad.   DampErr         ....    0.1000
 Fernandez-Rico         CNVRico         .... off

SCF Procedure:
 Maximum # iterations   MaxIter         ....   125
 SCF integral mode      SCFMode         .... Direct
   Integral package                     .... SHARK and LIBINT hybrid scheme
 Reset frequency        DirectResetFreq ....    20
 Integral Threshold     Thresh          ....  2.500e-11 Eh
 Primitive CutOff       TCut            ....  2.500e-12 Eh

Convergence Tolerance:
 Convergence Check Mode ConvCheckMode   .... Total+1el-Energy
 Convergence forced     ConvForced      .... 0
 Energy Change          TolE            ....  1.000e-08 Eh
 1-El. energy change                    ....  1.000e-05 Eh
 Orbital Gradient       TolG            ....  1.000e-05
 Orbital Rotation angle TolX            ....  1.000e-05
 DIIS Error             TolErr          ....  5.000e-07


Diagonalization of the overlap matrix:
Smallest eigenvalue                        ... 6.626e-06
Time for diagonalization                   ...    0.516 sec
Threshold for overlap eigenvalues          ... 1.000e-08
Number of eigenvalues below threshold      ... 0
Time for construction of square roots      ...    0.343 sec
Total time needed                          ...    0.866 sec

Time for model grid setup =    0.846 sec

------------------------------
INITIAL GUESS: MODEL POTENTIAL
------------------------------
Loading Hartree-Fock densities                     ... done
Calculating cut-offs                               ... done
Initializing the effective Hamiltonian             ... done
Setting up the integral package (SHARK)            ... done
Starting the Coulomb interaction                   ... done (   1.0 sec)
Reading the grid                                   ... done
Mapping shells                                     ... done
Starting the XC term evaluation                    ... done (   0.9 sec)
  promolecular density results
     # of electrons  =    155.987428023
     EX              =   -129.429099490
     EC              =     -5.225652668
     EX+EC           =   -134.654752158
Transforming the Hamiltonian                       ... done (   0.3 sec)
Diagonalizing the Hamiltonian                      ... done (   0.6 sec)
Back transforming the eigenvectors                 ... done (   0.1 sec)
Now organizing SCF variables                       ... done
                      ------------------
                      INITIAL GUESS DONE (   3.7 sec)
                      ------------------
-------------------
DFT GRID GENERATION
-------------------

General Integration Accuracy     IntAcc      ... 4.388
Radial Grid Type                 RadialGrid  ... OptM3 with GC (2021)
Angular Grid (max. ang.)         AngularGrid ... 4 (Lebedev-302)
Angular grid pruning method      GridPruning ... 4 (adaptive)
Weight generation scheme         WeightScheme... Becke
Basis function cutoff            BFCut       ... 1.0000e-11
Integration weight cutoff        WCut        ... 1.0000e-14
Angular grids for H and He will be reduced by one unit
Partially contracted basis set               ... off
Rotationally invariant grid construction     ... off

Total number of grid points                  ...   183160
Total number of batches                      ...     2881
Average number of points per batch           ...       63
Average number of grid points per atom       ...     4820
Time for grid setup =    2.991 sec


--------------------
CPCM SOLVATION MODEL
--------------------
CPCM parameters:
  Epsilon                                         ...       7.2500
  Refrac                                          ...       1.4070
  Rsolv                                           ...       1.3000
  Surface type                                    ... GAUSSIAN VDW
  Epsilon function type                           ...         CPCM
Radii:
 Radius for C  used is    3.8550 Bohr (=   2.0400 Ang.)
 Radius for H  used is    2.4944 Bohr (=   1.3200 Ang.)
 Radius for O  used is    3.4469 Bohr (=   1.8240 Ang.)
Calculating surface                               ...        done! (  0.0s)
GEPOL surface points                              ...         2069
GEPOL Volume                                      ...    2400.5304
GEPOL Surface-area                                ...    1247.0258
Calculating surface distance matrix               ...        done! (  0.1s)
Performing Cholesky decomposition & store         ...        done! (  0.7s)
Overall time for CPCM initialization              ...                 0.9s
--------------
SCF ITERATIONS
--------------
ITER       Energy         Delta-E        Max-DP      RMS-DP      [F,P]     Damp
               ***  Starting incremental Fock matrix formation  ***
  0   -996.5203944548   0.000000000000 0.18344901  0.00119859  0.2713864 0.7000
  1   -996.7395855701  -0.219191115337 0.17969943  0.00106445  0.0908413 0.7000
                               ***Turning on DIIS***
  2   -996.8175125010  -0.077926930920 0.24487520  0.00169295  0.0262618 0.0000
  3   -996.9479126584  -0.130400157426 0.15710059  0.00089663  0.0406506 0.0000
  4   -996.9745884278  -0.026675769314 0.04620517  0.00029541  0.0281860 0.0000
  5   -996.9774971338  -0.002908706036 0.02380126  0.00013032  0.0069787 0.0000
                      *** Initiating the SOSCF procedure ***
                           *** Shutting down DIIS ***
                      *** Re-Reading the Fockian *** 
                      *** Removing any level shift *** 
ITER      Energy       Delta-E        Grad      Rot      Max-DP    RMS-DP
  6   -996.97767438  -0.0001772413  0.000292  0.000292  0.005184  0.000038
               *** Restarting incremental Fock matrix formation ***
  7   -996.97769003  -0.0000156583  0.000173  0.000730  0.003758  0.000025
  8   -996.97768492   0.0000051162  0.000408  0.000516  0.001065  0.000006
  9   -996.97769259  -0.0000076682  0.000048  0.000188  0.000522  0.000003
 10   -996.97769219   0.0000003962  0.000101  0.000140  0.000202  0.000002
 11   -996.97769270  -0.0000005144  0.000010  0.000058  0.000216  0.000001
 12   -996.97769268   0.0000000209  0.000018  0.000046  0.000211  0.000001
 13   -996.97769271  -0.0000000251  0.000003  0.000016  0.000096  0.000001
 14   -996.97769270   0.0000000038  0.000005  0.000011  0.000146  0.000001
                  ***Gradient check signals convergence***
              ***Rediagonalizing the Fockian in SOSCF/NRSCF***

               *****************************************************
               *                     SUCCESS                       *
               *           SCF CONVERGED AFTER  15 CYCLES          *
               *****************************************************


----------------
TOTAL SCF ENERGY
----------------

Total Energy       :         -996.97769271 Eh          -27129.14224 eV

Components:
Nuclear Repulsion  :         1590.35330840 Eh           43275.71362 eV
Electronic Energy  :        -2587.33100111 Eh          -70404.85585 eV
One Electron Energy:        -4514.61940652 Eh         -122849.03958 eV
Two Electron Energy:         1927.28840541 Eh           52444.18372 eV
CPCM Dielectric    :           -0.02039222 Eh              -0.55490 eV

Virial components:
Potential Energy   :        -1990.26162864 Eh          -54157.77224 eV
Kinetic Energy     :          993.28393593 Eh           27028.63001 eV
Virial Ratio       :            2.00371873


DFT components:
N(Alpha)           :       78.000068915928 electrons
N(Beta)            :       78.000068915928 electrons
N(Total)           :      156.000137831856 electrons
E(X)               :     -133.285489348406 Eh       
E(C)               :       -5.237444943659 Eh       
E(XC)              :     -138.522934292065 Eh       
DFET-embed. en.    :        0.000000000000 Eh       
CPCM Solvation Model Properties:
Surface-charge          :           -0.03278346
Charge-correction       :           -0.00025305 Eh              -0.00689 eV
Free-energy (cav+disp)  :  This term is not implemented in the current solvation scheme

---------------
SCF CONVERGENCE
---------------

  Last Energy change         ...   -2.5925e-09  Tolerance :   1.0000e-08
  Last MAX-Density change    ...    1.1359e-04  Tolerance :   1.0000e-07
  Last RMS-Density change    ...    1.2116e-06  Tolerance :   5.0000e-09
  Last Orbital Gradient      ...    1.0445e-06  Tolerance :   1.0000e-05
  Last Orbital Rotation      ...    3.3919e-06  Tolerance :   1.0000e-05

             **** THE GBW FILE WAS UPDATED (MA_freqopt.gbw) ****
             **** DENSITY MA_freqopt.scfp WAS UPDATED ****
             **** ENERGY FILE WAS UPDATED (MA_freqopt.en.tmp) ****
             **** THE GBW FILE WAS UPDATED (MA_freqopt.gbw) ****
             **** DENSITY MA_freqopt.scfp WAS UPDATED ****
----------------
ORBITAL ENERGIES
----------------

  NO   OCC          E(Eh)            E(eV) 
   0   2.0000     -18.929455      -515.0966 
   1   2.0000     -18.918653      -514.8027 
   2   2.0000     -18.872491      -513.5466 
   3   2.0000     -18.870558      -513.4940 
   4   2.0000     -10.107785      -275.0468 
   5   2.0000     -10.071824      -274.0683 
   6   2.0000     -10.051043      -273.5028 
   7   2.0000     -10.035362      -273.0761 
   8   2.0000     -10.034790      -273.0605 
   9   2.0000     -10.014760      -272.5155 
  10   2.0000     -10.009280      -272.3664 
  11   2.0000     -10.004867      -272.2463 
  12   2.0000     -10.000424      -272.1254 
  13   2.0000      -9.997631      -272.0494 
  14   2.0000      -9.997457      -272.0446 
  15   2.0000      -9.995513      -271.9917 
  16   2.0000      -9.995333      -271.9868 
  17   2.0000      -9.994501      -271.9642 
  18   2.0000      -9.993869      -271.9470 
  19   2.0000      -9.992880      -271.9201 
  20   2.0000      -9.991273      -271.8764 
  21   2.0000      -9.990410      -271.8529 
  22   2.0000      -1.040937       -28.3253 
  23   2.0000      -1.005082       -27.3497 
  24   2.0000      -0.975142       -26.5350 
  25   2.0000      -0.951602       -25.8944 
  26   2.0000      -0.817020       -22.2322 
  27   2.0000      -0.807025       -21.9603 
  28   2.0000      -0.760178       -20.6855 
  29   2.0000      -0.723406       -19.6849 
  30   2.0000      -0.709677       -19.3113 
  31   2.0000      -0.705138       -19.1878 
  32   2.0000      -0.703091       -19.1321 
  33   2.0000      -0.670584       -18.2475 
  34   2.0000      -0.646951       -17.6044 
  35   2.0000      -0.622638       -16.9429 
  36   2.0000      -0.584771       -15.9124 
  37   2.0000      -0.569326       -15.4921 
  38   2.0000      -0.559906       -15.2358 
  39   2.0000      -0.546518       -14.8715 
  40   2.0000      -0.522478       -14.2173 
  41   2.0000      -0.506071       -13.7709 
  42   2.0000      -0.496368       -13.5069 
  43   2.0000      -0.476225       -12.9587 
  44   2.0000      -0.452818       -12.3218 
  45   2.0000      -0.450757       -12.2657 
  46   2.0000      -0.445909       -12.1338 
  47   2.0000      -0.441472       -12.0131 
  48   2.0000      -0.437830       -11.9140 
  49   2.0000      -0.427538       -11.6339 
  50   2.0000      -0.419574       -11.4172 
  51   2.0000      -0.415465       -11.3054 
  52   2.0000      -0.407897       -11.0994 
  53   2.0000      -0.396074       -10.7777 
  54   2.0000      -0.393313       -10.7026 
  55   2.0000      -0.389309       -10.5936 
  56   2.0000      -0.388267       -10.5653 
  57   2.0000      -0.380013       -10.3407 
  58   2.0000      -0.370448       -10.0804 
  59   2.0000      -0.365490        -9.9455 
  60   2.0000      -0.362426        -9.8621 
  61   2.0000      -0.345482        -9.4011 
  62   2.0000      -0.336593        -9.1592 
  63   2.0000      -0.334539        -9.1033 
  64   2.0000      -0.333525        -9.0757 
  65   2.0000      -0.322456        -8.7745 
  66   2.0000      -0.319762        -8.7012 
  67   2.0000      -0.309645        -8.4259 
  68   2.0000      -0.294185        -8.0052 
  69   2.0000      -0.292789        -7.9672 
  70   2.0000      -0.271614        -7.3910 
  71   2.0000      -0.268586        -7.3086 
  72   2.0000      -0.244143        -6.6435 
  73   2.0000      -0.242523        -6.5994 
  74   2.0000      -0.241522        -6.5721 
  75   2.0000      -0.232281        -6.3207 
  76   2.0000      -0.210709        -5.7337 
  77   2.0000      -0.205706        -5.5975 
  78   0.0000      -0.111958        -3.0465 
  79   0.0000      -0.073559        -2.0016 
  80   0.0000      -0.042056        -1.1444 
  81   0.0000      -0.037483        -1.0200 
  82   0.0000      -0.028578        -0.7777 
  83   0.0000       0.015941         0.4338 
  84   0.0000       0.034564         0.9405 
  85   0.0000       0.040593         1.1046 
  86   0.0000       0.043007         1.1703 
  87   0.0000       0.052179         1.4199 
  88   0.0000       0.054325         1.4783 
  89   0.0000       0.061496         1.6734 
  90   0.0000       0.065604         1.7852 
  91   0.0000       0.071861         1.9554 
  92   0.0000       0.079225         2.1558 
  93   0.0000       0.089762         2.4426 
  94   0.0000       0.094503         2.5715 
  95   0.0000       0.095439         2.5970 
  96   0.0000       0.100491         2.7345 
  97   0.0000       0.106976         2.9110 
  98   0.0000       0.110518         3.0074 
  99   0.0000       0.113609         3.0915 
 100   0.0000       0.113922         3.1000 
 101   0.0000       0.116071         3.1584 
 102   0.0000       0.122335         3.3289 
 103   0.0000       0.123611         3.3636 
 104   0.0000       0.128098         3.4857 
 105   0.0000       0.136529         3.7151 
 106   0.0000       0.144870         3.9421 
 107   0.0000       0.151855         4.1322 
 108   0.0000       0.157174         4.2769 
 109   0.0000       0.170030         4.6268 
 110   0.0000       0.176843         4.8121 
 111   0.0000       0.179783         4.8921 
 112   0.0000       0.184118         5.0101 
 113   0.0000       0.186194         5.0666 
 114   0.0000       0.193885         5.2759 
 115   0.0000       0.196108         5.3364 
 116   0.0000       0.205275         5.5858 
 117   0.0000       0.206238         5.6120 
 118   0.0000       0.209075         5.6892 
 119   0.0000       0.211156         5.7459 
 120   0.0000       0.214039         5.8243 
 121   0.0000       0.216483         5.8908 
 122   0.0000       0.217732         5.9248 
 123   0.0000       0.222516         6.0550 
 124   0.0000       0.226359         6.1595 
 125   0.0000       0.227434         6.1888 
 126   0.0000       0.236164         6.4264 
 127   0.0000       0.240163         6.5352 
 128   0.0000       0.249867         6.7992 
 129   0.0000       0.254187         6.9168 
 130   0.0000       0.256765         6.9869 
 131   0.0000       0.258439         7.0325 
 132   0.0000       0.262010         7.1297 
 133   0.0000       0.269057         7.3214 
 134   0.0000       0.275787         7.5046 
 135   0.0000       0.283297         7.7089 
 136   0.0000       0.285208         7.7609 
 137   0.0000       0.288674         7.8552 
 138   0.0000       0.292551         7.9607 
 139   0.0000       0.301314         8.1992 
 140   0.0000       0.303405         8.2561 
 141   0.0000       0.310914         8.4604 
 142   0.0000       0.313315         8.5257 
 143   0.0000       0.318865         8.6767 
 144   0.0000       0.326524         8.8852 
 145   0.0000       0.331439         9.0189 
 146   0.0000       0.332061         9.0358 
 147   0.0000       0.337032         9.1711 
 148   0.0000       0.339838         9.2475 
 149   0.0000       0.348144         9.4735 
 150   0.0000       0.351250         9.5580 
 151   0.0000       0.355028         9.6608 
 152   0.0000       0.357951         9.7403 
 153   0.0000       0.362810         9.8726 
 154   0.0000       0.367548        10.0015 
 155   0.0000       0.376498        10.2450 
 156   0.0000       0.379895        10.3375 
 157   0.0000       0.382490        10.4081 
 158   0.0000       0.389522        10.5994 
 159   0.0000       0.390185        10.6175 
 160   0.0000       0.394814        10.7434 
 161   0.0000       0.395698        10.7675 
 162   0.0000       0.400596        10.9008 
 163   0.0000       0.406641        11.0653 
 164   0.0000       0.407951        11.1009 
 165   0.0000       0.412108        11.2140 
 166   0.0000       0.418280        11.3820 
 167   0.0000       0.419953        11.4275 
 168   0.0000       0.423548        11.5253 
 169   0.0000       0.429642        11.6912 
 170   0.0000       0.430568        11.7164 
 171   0.0000       0.434840        11.8326 
 172   0.0000       0.438043        11.9198 
 173   0.0000       0.442121        12.0307 
 174   0.0000       0.446781        12.1575 
 175   0.0000       0.448167        12.1952 
 176   0.0000       0.453580        12.3425 
 177   0.0000       0.459864        12.5135 
 178   0.0000       0.463685        12.6175 
 179   0.0000       0.469320        12.7708 
 180   0.0000       0.469937        12.7876 
 181   0.0000       0.476239        12.9591 
 182   0.0000       0.481974        13.1152 
 183   0.0000       0.485473        13.2104 
 184   0.0000       0.493835        13.4379 
 185   0.0000       0.495839        13.4925 
 186   0.0000       0.500435        13.6175 
 187   0.0000       0.511235        13.9114 
 188   0.0000       0.515852        14.0370 
 189   0.0000       0.525873        14.3097 
 190   0.0000       0.528695        14.3865 
 191   0.0000       0.540237        14.7006 
 192   0.0000       0.543691        14.7946 
 193   0.0000       0.547229        14.8909 
 194   0.0000       0.559231        15.2175 
 195   0.0000       0.567935        15.4543 
 196   0.0000       0.574515        15.6333 
 197   0.0000       0.576435        15.6856 
 198   0.0000       0.579892        15.7797 
 199   0.0000       0.587288        15.9809 
 200   0.0000       0.594652        16.1813 
 201   0.0000       0.604386        16.4462 
 202   0.0000       0.607399        16.5282 
 203   0.0000       0.615485        16.7482 
 204   0.0000       0.621691        16.9171 
 205   0.0000       0.623165        16.9572 
 206   0.0000       0.631493        17.1838 
 207   0.0000       0.634799        17.2737 
 208   0.0000       0.640177        17.4201 
 209   0.0000       0.645318        17.5600 
 210   0.0000       0.649839        17.6830 
 211   0.0000       0.657422        17.8894 
 212   0.0000       0.666846        18.1458 
 213   0.0000       0.668177        18.1820 
 214   0.0000       0.672430        18.2977 
 215   0.0000       0.677217        18.4280 
 216   0.0000       0.678165        18.4538 
 217   0.0000       0.689936        18.7741 
 218   0.0000       0.695440        18.9239 
 219   0.0000       0.701980        19.1018 
 220   0.0000       0.711631        19.3645 
 221   0.0000       0.716002        19.4834 
 222   0.0000       0.724992        19.7280 
 223   0.0000       0.733336        19.9551 
 224   0.0000       0.735556        20.0155 
 225   0.0000       0.741017        20.1641 
 226   0.0000       0.747196        20.3322 
 227   0.0000       0.752559        20.4782 
 228   0.0000       0.758086        20.6286 
 229   0.0000       0.773470        21.0472 
 230   0.0000       0.775807        21.1108 
 231   0.0000       0.782362        21.2891 
 232   0.0000       0.786082        21.3904 
 233   0.0000       0.796351        21.6698 
 234   0.0000       0.800615        21.7859 
 235   0.0000       0.806096        21.9350 
 236   0.0000       0.809683        22.0326 
 237   0.0000       0.816143        22.2084 
 238   0.0000       0.826304        22.4849 
 239   0.0000       0.829062        22.5599 
 240   0.0000       0.832366        22.6498 
 241   0.0000       0.846156        23.0251 
 242   0.0000       0.848460        23.0878 
 243   0.0000       0.850764        23.1505 
 244   0.0000       0.858744        23.3676 
 245   0.0000       0.859986        23.4014 
 246   0.0000       0.868367        23.6295 
 247   0.0000       0.876787        23.8586 
 248   0.0000       0.883923        24.0528 
 249   0.0000       0.889199        24.1963 
 250   0.0000       0.897759        24.4293 
 251   0.0000       0.903370        24.5819 
 252   0.0000       0.917460        24.9654 
 253   0.0000       0.930274        25.3141 
 254   0.0000       0.939055        25.5530 
 255   0.0000       0.943773        25.6814 
 256   0.0000       0.955251        25.9937 
 257   0.0000       0.957633        26.0585 
 258   0.0000       0.966060        26.2878 
 259   0.0000       0.969747        26.3881 
 260   0.0000       0.977458        26.5980 
 261   0.0000       0.980534        26.6817 
 262   0.0000       0.993523        27.0351 
 263   0.0000       1.003492        27.3064 
 264   0.0000       1.008286        27.4369 
 265   0.0000       1.020136        27.7593 
 266   0.0000       1.021356        27.7925 
 267   0.0000       1.035747        28.1841 
 268   0.0000       1.045437        28.4478 
 269   0.0000       1.056300        28.7434 
 270   0.0000       1.066148        29.0114 
 271   0.0000       1.073844        29.2208 
 272   0.0000       1.076002        29.2795 
 273   0.0000       1.078861        29.3573 
 274   0.0000       1.092684        29.7335 
 275   0.0000       1.110451        30.2169 
 276   0.0000       1.115459        30.3532 
 277   0.0000       1.123418        30.5698 
 278   0.0000       1.134368        30.8677 
 279   0.0000       1.136689        30.9309 
 280   0.0000       1.154940        31.4275 
 281   0.0000       1.174973        31.9727 
 282   0.0000       1.176901        32.0251 
 283   0.0000       1.178850        32.0782 
 284   0.0000       1.191016        32.4092 
 285   0.0000       1.193161        32.4676 
 286   0.0000       1.195902        32.5421 
 287   0.0000       1.208644        32.8889 
 288   0.0000       1.210107        32.9287 
 289   0.0000       1.225641        33.3514 
 290   0.0000       1.231431        33.5089 
 291   0.0000       1.233472        33.5645 
 292   0.0000       1.237950        33.6863 
 293   0.0000       1.252790        34.0901 
 294   0.0000       1.263282        34.3756 
 295   0.0000       1.272805        34.6348 
 296   0.0000       1.281299        34.8659 
 297   0.0000       1.285549        34.9816 
 298   0.0000       1.291710        35.1492 
 299   0.0000       1.296905        35.2906 
 300   0.0000       1.309864        35.6432 
 301   0.0000       1.319607        35.9083 
 302   0.0000       1.334011        36.3003 
 303   0.0000       1.337531        36.3961 
 304   0.0000       1.355958        36.8975 
 305   0.0000       1.368161        37.2295 
 306   0.0000       1.374502        37.4021 
 307   0.0000       1.383138        37.6371 
 308   0.0000       1.395188        37.9650 
 309   0.0000       1.403756        38.1981 
 310   0.0000       1.410780        38.3893 
 311   0.0000       1.421463        38.6800 
 312   0.0000       1.428107        38.8608 
 313   0.0000       1.435251        39.0552 
 314   0.0000       1.444508        39.3071 
 315   0.0000       1.448848        39.4252 
 316   0.0000       1.454642        39.5828 
 317   0.0000       1.458045        39.6754 
 318   0.0000       1.466314        39.9004 
 319   0.0000       1.467780        39.9403 
 320   0.0000       1.473328        40.0913 
 321   0.0000       1.476410        40.1752 
 322   0.0000       1.484238        40.3882 
 323   0.0000       1.494302        40.6620 
 324   0.0000       1.503431        40.9104 
 325   0.0000       1.505877        40.9770 
 326   0.0000       1.511406        41.1274 
 327   0.0000       1.514556        41.2132 
 328   0.0000       1.519878        41.3580 
 329   0.0000       1.524351        41.4797 
 330   0.0000       1.529922        41.6313 
 331   0.0000       1.541345        41.9421 
 332   0.0000       1.550688        42.1964 
 333   0.0000       1.557452        42.3804 
 334   0.0000       1.562380        42.5145 
 335   0.0000       1.571927        42.7743 
 336   0.0000       1.576795        42.9068 
 337   0.0000       1.582036        43.0494 
 338   0.0000       1.588574        43.2273 
 339   0.0000       1.600397        43.5490 
 340   0.0000       1.605142        43.6781 
 341   0.0000       1.610665        43.8284 
 342   0.0000       1.623113        44.1672 
 343   0.0000       1.627554        44.2880 
 344   0.0000       1.630818        44.3768 
 345   0.0000       1.641450        44.6661 
 346   0.0000       1.650682        44.9174 
 347   0.0000       1.659632        45.1609 
 348   0.0000       1.662291        45.2332 
 349   0.0000       1.671443        45.4823 
 350   0.0000       1.681737        45.7624 
 351   0.0000       1.690318        45.9959 
 352   0.0000       1.700534        46.2739 
 353   0.0000       1.710719        46.5510 
 354   0.0000       1.720614        46.8203 
 355   0.0000       1.725936        46.9651 
 356   0.0000       1.727413        47.0053 
 357   0.0000       1.734584        47.2004 
 358   0.0000       1.747323        47.5471 
 359   0.0000       1.770021        48.1647 
 360   0.0000       1.775205        48.3058 
 361   0.0000       1.779970        48.4355 
 362   0.0000       1.796171        48.8763 
 363   0.0000       1.811644        49.2974 
 364   0.0000       1.820953        49.5507 
 365   0.0000       1.825425        49.6723 
 366   0.0000       1.831061        49.8257 
 367   0.0000       1.838254        50.0214 
 368   0.0000       1.839778        50.0629 
 369   0.0000       1.844998        50.2049 
 370   0.0000       1.861649        50.6581 
 371   0.0000       1.881495        51.1981 
 372   0.0000       1.888043        51.3763 
 373   0.0000       1.897902        51.6445 
 374   0.0000       1.903719        51.8028 
 375   0.0000       1.919121        52.2219 
 376   0.0000       1.926379        52.4194 
 377   0.0000       1.938820        52.7580 
 378   0.0000       1.946826        52.9758 
 379   0.0000       1.949336        53.0441 
 380   0.0000       1.956743        53.2457 
 381   0.0000       1.972254        53.6678 
 382   0.0000       1.983773        53.9812 
 383   0.0000       1.985567        54.0300 
 384   0.0000       1.987861        54.0924 
 385   0.0000       1.999061        54.3972 
 386   0.0000       2.010186        54.7000 
 387   0.0000       2.017976        54.9119 
 388   0.0000       2.033338        55.3299 
 389   0.0000       2.039326        55.4929 
 390   0.0000       2.044536        55.6346 
 391   0.0000       2.054921        55.9173 
 392   0.0000       2.061661        56.1007 
 393   0.0000       2.074216        56.4423 
 394   0.0000       2.074990        56.4634 
 395   0.0000       2.085527        56.7501 
 396   0.0000       2.099643        57.1342 
 397   0.0000       2.112600        57.4868 
 398   0.0000       2.115510        57.5659 
 399   0.0000       2.119558        57.6761 
 400   0.0000       2.134454        58.0814 
 401   0.0000       2.139737        58.2252 
 402   0.0000       2.149873        58.5010 
 403   0.0000       2.152599        58.5752 
 404   0.0000       2.166824        58.9623 
 405   0.0000       2.193497        59.6881 
 406   0.0000       2.200859        59.8884 
 407   0.0000       2.201634        59.9095 
 408   0.0000       2.213867        60.2424 
 409   0.0000       2.225912        60.5702 
 410   0.0000       2.240609        60.9701 
 411   0.0000       2.247043        61.1452 
 412   0.0000       2.252361        61.2899 
 413   0.0000       2.259911        61.4953 
 414   0.0000       2.264871        61.6303 
 415   0.0000       2.267716        61.7077 
 416   0.0000       2.277754        61.9808 
 417   0.0000       2.284481        62.1639 
 418   0.0000       2.293702        62.4148 
 419   0.0000       2.310085        62.8606 
 420   0.0000       2.320317        63.1390 
 421   0.0000       2.330574        63.4181 
 422   0.0000       2.345350        63.8202 
 423   0.0000       2.351516        63.9880 
 424   0.0000       2.355391        64.0934 
 425   0.0000       2.387239        64.9601 
 426   0.0000       2.391912        65.0872 
 427   0.0000       2.397435        65.2375 
 428   0.0000       2.401695        65.3534 
 429   0.0000       2.412486        65.6471 
 430   0.0000       2.413829        65.6836 
 431   0.0000       2.435484        66.2729 
 432   0.0000       2.440702        66.4149 
 433   0.0000       2.449079        66.6428 
 434   0.0000       2.459442        66.9248 
 435   0.0000       2.496246        67.9263 
 436   0.0000       2.504159        68.1416 
 437   0.0000       2.507059        68.2205 
 438   0.0000       2.512339        68.3642 
 439   0.0000       2.516891        68.4881 
 440   0.0000       2.526011        68.7362 
 441   0.0000       2.534245        68.9603 
 442   0.0000       2.536722        69.0277 
 443   0.0000       2.542222        69.1774 
 444   0.0000       2.558592        69.6228 
 445   0.0000       2.562828        69.7381 
 446   0.0000       2.568911        69.9036 
 447   0.0000       2.573065        70.0167 
 448   0.0000       2.587466        70.4085 
 449   0.0000       2.597704        70.6871 
 450   0.0000       2.606662        70.9309 
 451   0.0000       2.610039        71.0228 
 452   0.0000       2.618797        71.2611 
 453   0.0000       2.632519        71.6345 
 454   0.0000       2.634584        71.6907 
 455   0.0000       2.643186        71.9247 
 456   0.0000       2.647277        72.0361 
 457   0.0000       2.657985        72.3275 
 458   0.0000       2.658254        72.3348 
 459   0.0000       2.662241        72.4433 
 460   0.0000       2.666515        72.5596 
 461   0.0000       2.677929        72.8701 
 462   0.0000       2.686445        73.1019 
 463   0.0000       2.692782        73.2743 
 464   0.0000       2.697357        73.3988 
 465   0.0000       2.701630        73.5151 
 466   0.0000       2.712544        73.8121 
 467   0.0000       2.717097        73.9360 
 468   0.0000       2.725056        74.1525 
 469   0.0000       2.732698        74.3605 
 470   0.0000       2.737288        74.4854 
 471   0.0000       2.741428        74.5981 
 472   0.0000       2.750702        74.8504 
 473   0.0000       2.752500        74.8993 
 474   0.0000       2.758382        75.0594 
 475   0.0000       2.767790        75.3154 
 476   0.0000       2.781367        75.6848 
 477   0.0000       2.784619        75.7733 
 478   0.0000       2.788237        75.8718 
 479   0.0000       2.796854        76.1063 
 480   0.0000       2.806936        76.3806 
 481   0.0000       2.808766        76.4304 
 482   0.0000       2.818311        76.6901 
 483   0.0000       2.821393        76.7740 
 484   0.0000       2.832017        77.0631 
 485   0.0000       2.834265        77.1243 
 486   0.0000       2.838619        77.2427 
 487   0.0000       2.846102        77.4464 
 488   0.0000       2.851832        77.6023 
 489   0.0000       2.856664        77.7338 
 490   0.0000       2.859959        77.8234 
 491   0.0000       2.862092        77.8815 
 492   0.0000       2.876792        78.2815 
 493   0.0000       2.882643        78.4407 
 494   0.0000       2.883264        78.4576 
 495   0.0000       2.900473        78.9259 
 496   0.0000       2.917165        79.3801 
 497   0.0000       2.920995        79.4843 
[...]
  6:     11.07   0.000242    1.22  0.006819  ( 0.073499  0.000496  0.037641)
  7:     13.15   0.000674    3.41  0.015990  (-0.023845 -0.014657 -0.123317)
  8:     21.75   0.000226    1.14  0.003236  (-0.004030 -0.007144  0.056295)
  9:     45.51   0.000163    0.82  0.001118  (-0.025162  0.001204  0.021993)
 10:     56.84   0.000236    1.19  0.001294  (-0.030516 -0.010400 -0.015947)
 11:     81.16   0.000841    4.25  0.003233  (-0.030370 -0.030389 -0.037239)
 12:     95.65   0.000684    3.45  0.002230  ( 0.019187  0.042673 -0.006398)
 13:    112.70   0.000315    1.59  0.000873  (-0.018159 -0.013560  0.018949)
 14:    132.03   0.001336    6.75  0.003157  ( 0.035331 -0.017746  0.039920)
 15:    145.54   0.000120    0.61  0.000258  ( 0.011262 -0.005293 -0.010134)
 16:    152.06   0.000002    0.01  0.000003  ( 0.001809 -0.000134  0.000035)
 17:    169.79   0.001047    5.29  0.001925  ( 0.002451 -0.027455 -0.034139)
 18:    200.55   0.000136    0.69  0.000211  ( 0.006206 -0.008871 -0.009689)
 19:    204.53   0.000269    1.36  0.000410  (-0.017280  0.010359 -0.002003)
 20:    236.76   0.001476    7.46  0.001945  (-0.007756  0.043418  0.000129)
 21:    260.49   0.000272    1.37  0.000326  (-0.011766  0.005047  0.012714)
 22:    268.80   0.001218    6.15  0.001414  ( 0.004470 -0.000882  0.037321)
 23:    276.82   0.003021   15.27  0.003405  (-0.027456  0.042827  0.028590)
 24:    308.35   0.004204   21.25  0.004255  ( 0.015108 -0.063400  0.002705)
 25:    328.52   0.001362    6.88  0.001294  (-0.008814 -0.033707  0.008960)
 26:    376.36   0.000654    3.31  0.000543  (-0.021360 -0.004831  0.007937)
 27:    402.31   0.000122    0.62  0.000095  (-0.001646  0.007967  0.005341)
 28:    416.21   0.000206    1.04  0.000155  (-0.003942 -0.010183 -0.005942)
 29:    426.47   0.000337    1.70  0.000247  (-0.008500 -0.000421 -0.013202)
 30:    453.86   0.002327   11.76  0.001600  ( 0.017917  0.032749  0.014369)
 31:    476.77   0.004080   20.62  0.002670  ( 0.014974 -0.008669 -0.048694)
 32:    490.52   0.000878    4.44  0.000559  (-0.001791 -0.017749  0.015503)
 33:    537.98   0.004313   21.79  0.002502  (-0.029383  0.037995  0.013949)
 34:    555.14   0.001242    6.28  0.000698  ( 0.023291 -0.012185 -0.002732)
 35:    559.02   0.001767    8.93  0.000986  (-0.018371 -0.000669  0.025463)
 36:    609.23   0.001407    7.11  0.000721  (-0.000084  0.025424  0.008621)
 37:    633.35   0.001227    6.20  0.000604  (-0.007557  0.023373 -0.001043)
 38:    655.05   0.007652   38.67  0.003645  ( 0.007441 -0.051708 -0.030273)
 39:    683.30   0.004526   22.87  0.002067  ( 0.026967  0.025234  0.026518)
 40:    693.50   0.007244   36.61  0.003260  ( 0.031090 -0.014165 -0.045742)
 41:    710.99   0.005641   28.51  0.002476  (-0.014247  0.019928 -0.043313)
 42:    760.59   0.008433   42.62  0.003460  (-0.046266 -0.022391 -0.028600)
 43:    761.97   0.001516    7.66  0.000621  ( 0.005319 -0.006345 -0.023498)
 44:    784.61   0.015520   78.43  0.006173  ( 0.024435  0.035870  0.065490)
 45:    804.69   0.003376   17.06  0.001309  ( 0.015060 -0.001408 -0.032871)
 46:    816.13   0.008526   43.09  0.003260  ( 0.021585 -0.041135 -0.033200)
 47:    827.28   0.005907   29.85  0.002228  (-0.038908  0.026727 -0.000206)
 48:    842.40   0.001042    5.27  0.000386  (-0.004761 -0.001439  0.019011)
 49:    864.66   0.011599   58.62  0.004186  (-0.017716  0.016837  0.059906)
 50:    882.87   0.000288    1.46  0.000102  (-0.008879 -0.003165 -0.003606)
 51:    894.46   0.010057   50.82  0.003509  ( 0.018927  0.036392  0.042733)
 52:    919.00   0.002624   13.26  0.000891  (-0.013414  0.022251  0.014700)
 53:    948.50   0.004026   20.35  0.001325  ( 0.032524  0.014954  0.006579)
 54:    961.05   0.000040    0.20  0.000013  (-0.003106 -0.000831  0.001579)
 55:    966.84   0.000294    1.49  0.000095  ( 0.005402 -0.004552 -0.006707)
 56:    984.85   0.000880    4.45  0.000279  ( 0.000449 -0.016190 -0.004070)
 57:    992.40   0.002335   11.80  0.000734  ( 0.009545 -0.024461  0.006698)
 58:    997.14   0.014854   75.07  0.004649  ( 0.018282 -0.064930 -0.009934)
 59:   1006.31   0.053982  272.80  0.016740  (-0.058249  0.115004  0.011019)
 60:   1019.26   0.006750   34.11  0.002067  (-0.015409 -0.042344 -0.006009)
 61:   1043.38   0.000490    2.48  0.000147  ( 0.010832 -0.004051  0.003589)
 62:   1097.43   0.061062  308.58  0.017364  (-0.007575 -0.131499 -0.003788)
 63:   1102.91   0.000886    4.48  0.000251  (-0.007896 -0.002222  0.013540)
 64:   1118.94   0.000882    4.46  0.000246  (-0.013670  0.006695 -0.003771)
 65:   1148.33   0.000383    1.94  0.000104  ( 0.001257 -0.003389 -0.009546)
 66:   1149.66   0.000266    1.35  0.000072  (-0.006814 -0.002764 -0.004266)
 67:   1157.44   0.013001   65.70  0.003505  ( 0.009601  0.055093 -0.019437)
 68:   1175.14   0.015053   76.07  0.003997  (-0.008528 -0.062582  0.002857)
 69:   1178.84   0.020535  103.78  0.005436  ( 0.008351  0.073143  0.004056)
 70:   1183.64   0.011086   56.02  0.002923  (-0.018776 -0.050372 -0.005739)
 71:   1190.82   0.013194   66.68  0.003458  ( 0.011141 -0.057735 -0.000483)
 72:   1198.61   0.018478   93.38  0.004811  (-0.003751 -0.066742  0.018502)
 73:   1238.57   0.006983   35.29  0.001759  ( 0.014428 -0.035469 -0.017122)
 74:   1251.97   0.206194  1042.02  0.051395  (-0.102100  0.193320  0.059986)
 75:   1259.55   0.080723  407.94  0.020000  (-0.056791 -0.129508 -0.001420)
 76:   1293.18   0.012086   61.08  0.002916  ( 0.034689 -0.035332 -0.021557)
 77:   1324.08   0.003557   17.97  0.000838  ( 0.011377  0.026568  0.001706)
 78:   1344.55   0.000589    2.98  0.000137  (-0.008442 -0.005693 -0.005747)
 79:   1358.25   0.006916   34.95  0.001589  (-0.005583  0.038328 -0.009420)
 80:   1411.52   0.007049   35.62  0.001558  ( 0.027720 -0.027898 -0.003408)
 81:   1428.14   0.001221    6.17  0.000267  (-0.002256  0.016177  0.000335)
 82:   1444.02   0.026234  132.58  0.005669  (-0.046167  0.053916  0.025121)
 83:   1447.46   0.006346   32.07  0.001368  (-0.025146 -0.026899 -0.003488)
 84:   1458.59   0.012243   61.87  0.002619  (-0.025076  0.044480  0.003484)
 85:   1467.33   0.002197   11.10  0.000467  (-0.003780  0.000553  0.021277)
 86:   1476.05   0.001929    9.75  0.000408  (-0.010810 -0.007096 -0.015510)
 87:   1477.09   0.002260   11.42  0.000477  ( 0.010526 -0.018783  0.003711)
 88:   1487.16   0.002537   12.82  0.000532  ( 0.017125 -0.004376 -0.014834)
 89:   1490.84   0.010736   54.25  0.002247  (-0.034403  0.017737  0.027369)
 90:   1516.40   0.000214    1.08  0.000044  (-0.000632  0.004984  0.004336)
 91:   1565.23   0.005676   28.69  0.001132  ( 0.012099  0.026940  0.016111)
 92:   1579.84   0.037334  188.67  0.007375  ( 0.058946 -0.008355 -0.061888)
 93:   1591.69   0.024242  122.51  0.004753  (-0.031031 -0.015113  0.059678)
 94:   1610.65   0.002614   13.21  0.000506  (-0.021339  0.000317  0.007139)
 95:   1614.42   0.013186   66.64  0.002549  (-0.011996 -0.040556 -0.027570)
 96:   1647.46   0.057835  292.27  0.010955  ( 0.006997 -0.101445  0.024803)
 97:   1673.24   0.104964  530.45  0.019576  (-0.134378 -0.020039 -0.033422)
 98:   2988.44   0.012674   64.05  0.001323  (-0.013906  0.033487 -0.002946)
 99:   3024.42   0.006830   34.52  0.000705  ( 0.011420  0.023744  0.003249)
100:   3052.10   0.009017   45.57  0.000922  (-0.020762 -0.010383 -0.019572)
101:   3099.94   0.005290   26.73  0.000533  ( 0.005110 -0.000210 -0.022503)
102:   3101.39   0.003528   17.83  0.000355  ( 0.018408  0.002387 -0.003231)
103:   3114.42   0.003813   19.27  0.000382  (-0.013986  0.001542  0.013567)
104:   3130.53   0.002117   10.70  0.000211  (-0.009296 -0.011131  0.000859)
105:   3133.65   0.003463   17.50  0.000345  ( 0.013326 -0.012579  0.003011)
106:   3138.68   0.003755   18.97  0.000373  (-0.019246 -0.000027 -0.001703)
107:   3140.38   0.002335   11.80  0.000232  (-0.003018 -0.011337  0.009718)
108:   3156.89   0.000563    2.84  0.000056  ( 0.003006  0.006804  0.000567)
109:   3160.99   0.001332    6.73  0.000131  (-0.006357  0.008623  0.004088)
110:   3161.75   0.002652   13.40  0.000262  ( 0.011409 -0.003077 -0.011051)
111:   3171.44   0.002473   12.50  0.000243  ( 0.008494 -0.012765  0.002869)
112:   3175.47   0.001545    7.81  0.000152  (-0.003487  0.011463 -0.002877)
113:   3175.92   0.000753    3.81  0.000074  (-0.006141  0.005989  0.000653)

* The epsilon (eps) is given for a Dirac delta lineshape.
** The dipole moment derivative (T) already includes vibrational overlap.

The first frequency considered to be a vibration is 6
The total number of vibrations considered is 108


--------------------------
THERMOCHEMISTRY AT 298.15K
--------------------------

Temperature         ... 298.15 K
Pressure            ... 1.00 atm
Total Mass          ... 296.32 AMU

Throughout the following assumptions are being made:
  (1) The electronic state is orbitally nondegenerate
  (2) There are no thermally accessible electronically excited states
  (3) Hindered rotations indicated by low frequency modes are not
      treated as such but are treated as vibrations and this may
      cause some error
  (4) All equations used are the standard statistical mechanics
      equations for an ideal gas
  (5) All vibrations are strictly harmonic

freq.      11.07  E(vib)   ...       0.58 
freq.      13.15  E(vib)   ...       0.57 
freq.      21.75  E(vib)   ...       0.56 
freq.      45.51  E(vib)   ...       0.53 
freq.      56.84  E(vib)   ...       0.51 
freq.      81.16  E(vib)   ...       0.48 
freq.      95.65  E(vib)   ...       0.47 
freq.     112.70  E(vib)   ...       0.45 
freq.     132.03  E(vib)   ...       0.42 
freq.     145.54  E(vib)   ...       0.41 
freq.     152.06  E(vib)   ...       0.40 
freq.     169.79  E(vib)   ...       0.38 
freq.     200.55  E(vib)   ...       0.35 
freq.     204.53  E(vib)   ...       0.35 
freq.     236.76  E(vib)   ...       0.32 
freq.     260.49  E(vib)   ...       0.30 
freq.     268.80  E(vib)   ...       0.29 
freq.     276.82  E(vib)   ...       0.28 
freq.     308.35  E(vib)   ...       0.26 
freq.     328.52  E(vib)   ...       0.24 
freq.     376.36  E(vib)   ...       0.21 
freq.     402.31  E(vib)   ...       0.19 
freq.     416.21  E(vib)   ...       0.18 
freq.     426.47  E(vib)   ...       0.18 
freq.     453.86  E(vib)   ...       0.16 
freq.     476.77  E(vib)   ...       0.15 
freq.     490.52  E(vib)   ...       0.15 
freq.     537.98  E(vib)   ...       0.12 
freq.     555.14  E(vib)   ...       0.12 
freq.     559.02  E(vib)   ...       0.12 
freq.     609.23  E(vib)   ...       0.10 
freq.     633.35  E(vib)   ...       0.09 
freq.     655.05  E(vib)   ...       0.08 
freq.     683.30  E(vib)   ...       0.08 
freq.     693.50  E(vib)   ...       0.07 
freq.     710.99  E(vib)   ...       0.07 
freq.     760.59  E(vib)   ...       0.06 
freq.     761.97  E(vib)   ...       0.06 
freq.     784.61  E(vib)   ...       0.05 
freq.     804.69  E(vib)   ...       0.05 
freq.     816.13  E(vib)   ...       0.05 
freq.     827.28  E(vib)   ...       0.04 
freq.     842.40  E(vib)   ...       0.04 
freq.     864.66  E(vib)   ...       0.04 
freq.     882.87  E(vib)   ...       0.04 
freq.     894.46  E(vib)   ...       0.03 
freq.     919.00  E(vib)   ...       0.03 
freq.     948.50  E(vib)   ...       0.03 
freq.     961.05  E(vib)   ...       0.03 
freq.     966.84  E(vib)   ...       0.03 
freq.     984.85  E(vib)   ...       0.02 
freq.     992.40  E(vib)   ...       0.02 
freq.     997.14  E(vib)   ...       0.02 
freq.    1006.31  E(vib)   ...       0.02 
freq.    1019.26  E(vib)   ...       0.02 
freq.    1043.38  E(vib)   ...       0.02 
freq.    1097.43  E(vib)   ...       0.02 
freq.    1102.91  E(vib)   ...       0.02 
freq.    1118.94  E(vib)   ...       0.01 
freq.    1148.33  E(vib)   ...       0.01 
freq.    1149.66  E(vib)   ...       0.01 
freq.    1157.44  E(vib)   ...       0.01 
freq.    1175.14  E(vib)   ...       0.01 
freq.    1178.84  E(vib)   ...       0.01 
freq.    1183.64  E(vib)   ...       0.01 
freq.    1190.82  E(vib)   ...       0.01 
freq.    1198.61  E(vib)   ...       0.01 
freq.    1238.57  E(vib)   ...       0.01 
freq.    1251.97  E(vib)   ...       0.01 
freq.    1259.55  E(vib)   ...       0.01 
freq.    1293.18  E(vib)   ...       0.01 
freq.    1324.08  E(vib)   ...       0.01 
freq.    1344.55  E(vib)   ...       0.01 
freq.    1358.25  E(vib)   ...       0.01 
freq.    1411.52  E(vib)   ...       0.00 
freq.    1428.14  E(vib)   ...       0.00 
freq.    1444.02  E(vib)   ...       0.00 
freq.    1447.46  E(vib)   ...       0.00 
freq.    1458.59  E(vib)   ...       0.00 
freq.    1467.33  E(vib)   ...       0.00 
freq.    1476.05  E(vib)   ...       0.00 
freq.    1477.09  E(vib)   ...       0.00 
freq.    1487.16  E(vib)   ...       0.00 
freq.    1490.84  E(vib)   ...       0.00 
freq.    1516.40  E(vib)   ...       0.00 
freq.    1565.23  E(vib)   ...       0.00 
freq.    1579.84  E(vib)   ...       0.00 
freq.    1591.69  E(vib)   ...       0.00 
freq.    1610.65  E(vib)   ...       0.00 
freq.    1614.42  E(vib)   ...       0.00 
freq.    1647.46  E(vib)   ...       0.00 
freq.    1673.24  E(vib)   ...       0.00 
freq.    2988.44  E(vib)   ...       0.00 
freq.    3024.42  E(vib)   ...       0.00 
freq.    3052.10  E(vib)   ...       0.00 
freq.    3099.94  E(vib)   ...       0.00 
freq.    3101.39  E(vib)   ...       0.00 
freq.    3114.42  E(vib)   ...       0.00 
freq.    3130.53  E(vib)   ...       0.00 
freq.    3133.65  E(vib)   ...       0.00 
freq.    3138.68  E(vib)   ...       0.00 
freq.    3140.38  E(vib)   ...       0.00 
freq.    3156.89  E(vib)   ...       0.00 
freq.    3160.99  E(vib)   ...       0.00 
freq.    3161.75  E(vib)   ...       0.00 
freq.    3171.44  E(vib)   ...       0.00 
freq.    3175.47  E(vib)   ...       0.00 
freq.    3175.92  E(vib)   ...       0.00 

------------
INNER ENERGY
------------

The inner energy is: U= E(el) + E(ZPE) + E(vib) + E(rot) + E(trans)
    E(el)   - is the total energy from the electronic structure calculation
              = E(kin-el) + E(nuc-el) + E(el-el) + E(nuc-nuc)
    E(ZPE)  - the the zero temperature vibrational energy from the frequency calculation
    E(vib)  - the the finite temperature correction to E(ZPE) due to population
              of excited vibrational states
    E(rot)  - is the rotational thermal energy
    E(trans)- is the translational thermal energy

Summary of contributions to the inner energy U:
Electronic energy                ...   -997.04314889 Eh
Zero point energy                ...      0.29380623 Eh     184.37 kcal/mol
Thermal vibrational correction   ...      0.01779617 Eh      11.17 kcal/mol
Thermal rotational correction    ...      0.00141627 Eh       0.89 kcal/mol
Thermal translational correction ...      0.00141627 Eh       0.89 kcal/mol
-----------------------------------------------------------------------
Total thermal energy                   -996.72871394 Eh


Summary of corrections to the electronic energy:
(perhaps to be used in another calculation)
Total thermal correction                  0.02062872 Eh      12.94 kcal/mol
Non-thermal (ZPE) correction              0.29380623 Eh     184.37 kcal/mol
-----------------------------------------------------------------------
Total correction                          0.31443495 Eh     197.31 kcal/mol


--------
ENTHALPY
--------

The enthalpy is H = U + kB*T
                kB is Boltzmann's constant
Total free energy                 ...   -996.72871394 Eh 
Thermal Enthalpy correction       ...      0.00094421 Eh       0.59 kcal/mol
-----------------------------------------------------------------------
Total Enthalpy                    ...   -996.72776973 Eh


Note: Only C1 symmetry has been detected, increase convergence thresholds 
      if your molecule has a higher symmetry. Symmetry factor of 1.0 is   
      used for the rotational entropy correction. 
 

Note: Rotational entropy computed according to Herzberg 
Infrared and Raman Spectra, Chapter V,1, Van Nostrand Reinhold, 1945 
Point Group:  C1, Symmetry Number:   1  
Rotational constants in cm-1:     0.022568     0.003129     0.002879 

Vibrational entropy computed according to the QRRHO of S. Grimme
Chem.Eur.J. 2012 18 9955


-------
ENTROPY
-------

The entropy contributions are T*S = T*(S(el)+S(vib)+S(rot)+S(trans))
     S(el)   - electronic entropy
     S(vib)  - vibrational entropy
     S(rot)  - rotational entropy
     S(trans)- translational entropy
The entropies will be listed as multiplied by the temperature to get
units of energy

Electronic entropy                ...      0.00000000 Eh      0.00 kcal/mol
Vibrational entropy               ...      0.03266670 Eh     20.50 kcal/mol
Rotational entropy                ...      0.01678497 Eh     10.53 kcal/mol
Translational entropy             ...      0.02040970 Eh     12.81 kcal/mol
-----------------------------------------------------------------------
Final entropy term                ...      0.06986138 Eh     43.84 kcal/mol

In case the symmetry of your molecule has not been determined correctly
or in case you have a reason to use a different symmetry number we print 
out the resulting rotational entropy values for sn=1,12 :
 --------------------------------------------------------
|  sn= 1 | S(rot)=       0.01678497 Eh     10.53 kcal/mol|
|  sn= 2 | S(rot)=       0.01613052 Eh     10.12 kcal/mol|
|  sn= 3 | S(rot)=       0.01574769 Eh      9.88 kcal/mol|
|  sn= 4 | S(rot)=       0.01547606 Eh      9.71 kcal/mol|
|  sn= 5 | S(rot)=       0.01526537 Eh      9.58 kcal/mol|
|  sn= 6 | S(rot)=       0.01509323 Eh      9.47 kcal/mol|
|  sn= 7 | S(rot)=       0.01494768 Eh      9.38 kcal/mol|
|  sn= 8 | S(rot)=       0.01482161 Eh      9.30 kcal/mol|
|  sn= 9 | S(rot)=       0.01471040 Eh      9.23 kcal/mol|
|  sn=10 | S(rot)=       0.01461092 Eh      9.17 kcal/mol|
|  sn=11 | S(rot)=       0.01452093 Eh      9.11 kcal/mol|
|  sn=12 | S(rot)=       0.01443877 Eh      9.06 kcal/mol|
 --------------------------------------------------------


-------------------
GIBBS FREE ENERGY
-------------------

The Gibbs free energy is G = H - T*S

Total enthalpy                    ...   -996.72776973 Eh 
Total entropy correction          ...     -0.06986138 Eh    -43.84 kcal/mol
-----------------------------------------------------------------------
Final Gibbs free energy         ...   -996.79763112 Eh

For completeness - the Gibbs free energy minus the electronic energy
G-E(el)                           ...      0.24551777 Eh    154.06 kcal/mol



Timings for individual modules:

Sum of individual times         ...    24380.801 sec (= 406.347 min)
GTO integral calculation        ...       57.517 sec (=   0.959 min)   0.2 %
SCF iterations                  ...     3189.211 sec (=  53.154 min)  13.1 %
SCF Gradient evaluation         ...      795.032 sec (=  13.251 min)   3.3 %
Geometry relaxation             ...        4.566 sec (=   0.076 min)   0.0 %
Numerical frequency calculation ...    20334.475 sec (= 338.908 min)  83.4 %
                             ****ORCA TERMINATED NORMALLY****
TOTAL RUN TIME: 0 days 6 hours 45 minutes 20 seconds 6 msec
‘MA_freqopt.cpcm’ -> ‘/home/rothe/Calc/Li_Path/THF/MA/MA_freqopt.cpcm’
‘MA_freqopt.densities’ -> ‘/home/rothe/Calc/Li_Path/THF/MA/MA_freqopt.densities’
‘MA_freqopt.engrad’ -> ‘/home/rothe/Calc/Li_Path/THF/MA/MA_freqopt.engrad’
‘MA_freqopt.gbw’ -> ‘/home/rothe/Calc/Li_Path/THF/MA/MA_freqopt.gbw’
‘MA_freqopt.hess’ -> ‘/home/rothe/Calc/Li_Path/THF/MA/MA_freqopt.hess’
‘MA_freqopt.job’ -> ‘/home/rothe/Calc/Li_Path/THF/MA/MA_freqopt.job’
‘MA_freqopt.opt’ -> ‘/home/rothe/Calc/Li_Path/THF/MA/MA_freqopt.opt’
‘MA_freqopt_property.txt’ -> ‘/home/rothe/Calc/Li_Path/THF/MA/MA_freqopt_property.txt’
‘MA_freqopt_trj.xyz’ -> ‘/home/rothe/Calc/Li_Path/THF/MA/MA_freqopt_trj.xyz’
‘MA_freqopt.xyz’ -> ‘/home/rothe/Calc/Li_Path/THF/MA/MA_freqopt.xyz’
