! Job execution by suborca V 5.02 !
Job started from clu.thch.uni-bonn.de, running /software/cluster/orca_5_0_2_linux_x86-64_openmpi411/orca from /software/cluster/orca_5_0_2_linux_x86-64_openmpi411 on boar227 in /tmp1/rothe/MA_sp__08j1aP
Going to copy the following really necessary files:  

                                 *****************
                                 * O   R   C   A *
                                 *****************

                                            #,                                       
                                            ###                                      
                                            ####                                     
                                            #####                                    
                                            ######                                   
                                           ########,                                 
                                     ,,################,,,,,                         
                               ,,#################################,,                 
                          ,,##########################################,,             
                       ,#########################################, ''#####,          
                    ,#############################################,,   '####,        
                  ,##################################################,,,,####,       
                ,###########''''           ''''###############################       
              ,#####''   ,,,,##########,,,,          '''####'''          '####       
            ,##' ,,,,###########################,,,                        '##       
           ' ,,###''''                  '''############,,,                           
         ,,##''                                '''############,,,,        ,,,,,,###''
      ,#''                                            '''#######################'''  
     '                                                          ''''####''''         
             ,#######,   #######,   ,#######,      ##                                
            ,#'     '#,  ##    ##  ,#'     '#,    #''#        ######   ,####,        
            ##       ##  ##   ,#'  ##            #'  '#       #        #'  '#        
            ##       ##  #######   ##           ,######,      #####,   #    #        
            '#,     ,#'  ##    ##  '#,     ,#' ,#      #,         ##   #,  ,#        
             '#######'   ##     ##  '#######'  #'      '#     #####' # '####'        



                  #######################################################
                  #                        -***-                        #
                  #          Department of theory and spectroscopy      #
                  #    Directorship and core code : Frank Neese         #
                  #        Max Planck Institute fuer Kohlenforschung    #
                  #                Kaiser Wilhelm Platz 1               #
                  #                 D-45470 Muelheim/Ruhr               #
                  #                      Germany                        #
                  #                                                     #
                  #                  All rights reserved                #
                  #                        -***-                        #
                  #######################################################


                         Program Version 5.0.2 -  RELEASE  -


 With contributions from (in alphabetic order):
   Daniel Aravena         : Magnetic Suceptibility
   Michael Atanasov       : Ab Initio Ligand Field Theory (pilot matlab implementation)
   Alexander A. Auer      : GIAO ZORA, VPT2 properties, NMR spectrum
   Ute Becker             : Parallelization
   Giovanni Bistoni       : ED, misc. LED, open-shell LED, HFLD
   Martin Brehm           : Molecular dynamics
   Dmytro Bykov           : SCF Hessian
   Vijay G. Chilkuri      : MRCI spin determinant printing, contributions to CSF-ICE
   Dipayan Datta          : RHF DLPNO-CCSD density
   Achintya Kumar Dutta   : EOM-CC, STEOM-CC
   Dmitry Ganyushin       : Spin-Orbit,Spin-Spin,Magnetic field MRCI
   Miquel Garcia          : C-PCM and meta-GGA Hessian, CC/C-PCM, Gaussian charge scheme
   Yang Guo               : DLPNO-NEVPT2, F12-NEVPT2, CIM, IAO-localization
   Andreas Hansen         : Spin unrestricted coupled pair/coupled cluster methods
   Benjamin Helmich-Paris : MC-RPA, TRAH-SCF, COSX integrals
   Lee Huntington         : MR-EOM, pCC
   Robert Izsak           : Overlap fitted RIJCOSX, COSX-SCS-MP3, EOM
   Marcus Kettner         : VPT2
   Christian Kollmar      : KDIIS, OOCD, Brueckner-CCSD(T), CCSD density, CASPT2, CASPT2-K
   Simone Kossmann        : Meta GGA functionals, TD-DFT gradient, OOMP2, MP2 Hessian
   Martin Krupicka        : Initial AUTO-CI
   Lucas Lang             : DCDCAS
   Marvin Lechner         : AUTO-CI (C++ implementation), FIC-MRCC
   Dagmar Lenk            : GEPOL surface, SMD
   Dimitrios Liakos       : Extrapolation schemes; Compound Job, initial MDCI parallelization
   Dimitrios Manganas     : Further ROCIS development; embedding schemes
   Dimitrios Pantazis     : SARC Basis sets
   Anastasios Papadopoulos: AUTO-CI, single reference methods and gradients
   Taras Petrenko         : DFT Hessian,TD-DFT gradient, ASA, ECA, R-Raman, ABS, FL, XAS/XES, NRVS
   Peter Pinski           : DLPNO-MP2, DLPNO-MP2 Gradient
   Christoph Reimann      : Effective Core Potentials
   Marius Retegan         : Local ZFS, SOC
   Christoph Riplinger    : Optimizer, TS searches, QM/MM, DLPNO-CCSD(T), (RO)-DLPNO pert. Triples
   Tobias Risthaus        : Range-separated hybrids, TD-DFT gradient, RPA, STAB
   Michael Roemelt        : Original ROCIS implementation
   Masaaki Saitow         : Open-shell DLPNO-CCSD energy and density
   Barbara Sandhoefer     : DKH picture change effects
   Avijit Sen             : IP-ROCIS
   Kantharuban Sivalingam : CASSCF convergence, NEVPT2, FIC-MRCI
   Bernardo de Souza      : ESD, SOC TD-DFT
   Georgi Stoychev        : AutoAux, RI-MP2 NMR, DLPNO-MP2 response
   Willem Van den Heuvel  : Paramagnetic NMR
   Boris Wezisla          : Elementary symmetry handling
   Frank Wennmohs         : Technical directorship


 We gratefully acknowledge several colleagues who have allowed us to
 interface, adapt or use parts of their codes:
   Stefan Grimme, W. Hujo, H. Kruse, P. Pracht,  : VdW corrections, initial TS optimization,
                  C. Bannwarth, S. Ehlert          DFT functionals, gCP, sTDA/sTD-DF
   Ed Valeev, F. Pavosevic, A. Kumar             : LibInt (2-el integral package), F12 methods
   Garnet Chan, S. Sharma, J. Yang, R. Olivares  : DMRG
   Ulf Ekstrom                                   : XCFun DFT Library
   Mihaly Kallay                                 : mrcc  (arbitrary order and MRCC methods)
   Jiri Pittner, Ondrej Demel                    : Mk-CCSD
   Frank Weinhold                                : gennbo (NPA and NBO analysis)
   Christopher J. Cramer and Donald G. Truhlar   : smd solvation model
   Lars Goerigk                                  : TD-DFT with DH, B97 family of functionals
   V. Asgeirsson, H. Jonsson                     : NEB implementation
   FAccTs GmbH                                   : IRC, NEB, NEB-TS, DLPNO-Multilevel, CI-OPT
                                                   MM, QMMM, 2- and 3-layer-ONIOM, Crystal-QMMM,
                                                   LR-CPCM, SF, NACMEs, symmetry and pop. for TD-DFT,
                                                   nearIR, NL-DFT gradient (VV10), updates on ESD,
                                                   ML-optimized integration grids
   S Lehtola, MJT Oliveira, MAL Marques          : LibXC Library
   Liviu Ungur et al                             : ANISO software


 Your calculation uses the libint2 library for the computation of 2-el integrals
 For citations please refer to: http://libint.valeyev.net

 Your ORCA version has been built with support for libXC version: 5.1.0
 For citations please refer to: https://tddft.org/programs/libxc/

 This ORCA versions uses:
   CBLAS   interface :  Fast vector & matrix operations
   LAPACKE interface :  Fast linear algebra routines
   SCALAPACK package :  Parallel linear algebra routines
   Shared memory     :  Shared parallel matrices
   BLAS/LAPACK       :  OpenBLAS 0.3.15  USE64BITINT DYNAMIC_ARCH NO_AFFINITY Barcelona SINGLE_THREADED
        Core in use  :  Barcelona
   Copyright (c) 2011-2014, The OpenBLAS Project


Your calculation utilizes the atom-pairwise dispersion correction
with the Becke-Johnson damping scheme (D3BJ)
Cite in your paper:
S.Grimme, S.Ehrlich, L.Goerigk, J Comput Chem, (2011), 32, 1456–1465 
S.Grimme, J.Antony, S.Ehrlich and H.Krieg, J.Chem.Phys., 132, (2010), 154104 
   

================================================================================

----- Orbital basis set information -----
Your calculation utilizes the basis: def2-QZVP
   F. Weigend and R. Ahlrichs, Phys. Chem. Chem. Phys. 7, 3297 (2005).

----- AuxJK basis set information -----
Your calculation utilizes the auxiliary basis: def2/JK
   H-Ba, Hf-Rn: F. Weigend, J. Comput. Chem. 29, 167 (2008).

================================================================================
                                        WARNINGS
                       Please study these warnings very carefully!
================================================================================


INFO   : the flag for use of the SHARK integral package has been found!

================================================================================
                                       INPUT FILE
================================================================================
NAME = MA_sp.inp
|  1> ! PW6B95 D3BJ def2-QZVP RIJK def2/JK tightSCF CPCM(THF)
|  2> ! sp Pal8
|  3> 
|  4> * xyz 0 1  
|  5>   C   -3.11072933947487      0.52884019970400      0.25652910329326
|  6>   C   -2.54269460971587     -0.75209951760385      0.34215557285234
|  7>   C   -1.17436582822338     -0.88090551364996      0.61777230992968
|  8>   C   -0.39565259031227      0.25451585259855      0.80835211425081
|  9>   C   -0.96412306847822      1.54081358672193      0.76246181056740
| 10>   C   -2.33425242998420      1.65822187821794      0.46422293722466
| 11>   H   -2.78520833233086      2.64063240089420      0.37722565580235
| 12>   H   -0.72335177862831     -1.86528061789196      0.67239989557204
| 13>   H   0.66742467105612      0.15099303419790      1.00929456438131
| 14>   C   -0.08890242916000      2.69882540633749      0.96730551932783
| 15>   H   0.94121375977261      2.54530362719684      0.64629611286877
| 16>   C   -0.38831295961462      3.91425202416308      1.47009405339556
| 17>   H   -4.16588520575502      0.62133897127143      0.02011590650275
| 18>   C   -3.42138833729417     -1.92807919586869      0.11595330999325
| 19>   O   -2.75878710443268     -3.10016617673945      0.24428384688355
| 20>   C   -3.56154597536710     -4.29176420055223      0.03306622125676
| 21>   H   -2.87243720397849     -5.12344683955525      0.17151052953821
| 22>   H   -3.97322258419575     -4.28747045755663     -0.97852864542861
| 23>   H   -4.37173642150336     -4.32803118023906      0.76460730533121
| 24>   O   -4.61232771021778     -1.86219914963487     -0.15545616369239
| 25>   C   -1.65191087951929      4.32873235564202      2.13599318133380
| 26>   H   0.39235338423861      4.67165826979878      1.44368691625319
| 27>   C   -2.12140898531112      5.72851449808297      1.91778340118889
| 28>   O   -2.26585246547925      3.56189460735838      2.88439870672750
| 29>   C   -1.57717284176993      6.53974302151054      0.90662068088969
| 30>   C   -2.08048118123513      7.82274628436150      0.71554316568519
| 31>   C   -3.10991881684982      8.31872232532396      1.51991783926734
| 32>   C   -3.65053683931622      7.50727974116191      2.52955081903955
| 33>   C   -3.15719659277666      6.21433151165645      2.72093550732843
| 34>   H   -3.57846132534987      5.58280696104913      3.49664600317511
| 35>   H   -3.48018735687728      9.32410455495248      1.35493513180507
| 36>   H   -0.78435605629714      6.16586768208789      0.26722339899332
| 37>   H   -1.67176168849650      8.45451306538517     -0.06785373514852
| 38>   O   -4.65762777931121      7.89515395548065      3.36809809233145
| 39>   C   -5.19429805451408      9.21874321699177      3.18981185197379
| 40>   H   -4.41967688411845      9.97623546860935      3.35396659696315
| 41>   H   -5.97706643009310      9.31567374477497      3.94173371361349
| 42>   H   -5.62047250488478      9.33170543306025      2.18671521943110
| 43> *
| 44> 
| 45>                          ****END OF INPUT****
================================================================================

                       ****************************
                       * Single Point Calculation *
                       ****************************

---------------------------------
CARTESIAN COORDINATES (ANGSTROEM)
---------------------------------
  C     -3.110729    0.528840    0.256529
  C     -2.542695   -0.752100    0.342156
  C     -1.174366   -0.880906    0.617772
  C     -0.395653    0.254516    0.808352
  C     -0.964123    1.540814    0.762462
  C     -2.334252    1.658222    0.464223
  H     -2.785208    2.640632    0.377226
  H     -0.723352   -1.865281    0.672400
  H      0.667425    0.150993    1.009295
  C     -0.088902    2.698825    0.967306
  H      0.941214    2.545304    0.646296
  C     -0.388313    3.914252    1.470094
  H     -4.165885    0.621339    0.020116
  C     -3.421388   -1.928079    0.115953
  O     -2.758787   -3.100166    0.244284
  C     -3.561546   -4.291764    0.033066
  H     -2.872437   -5.123447    0.171511
  H     -3.973223   -4.287470   -0.978529
  H     -4.371736   -4.328031    0.764607
  O     -4.612328   -1.862199   -0.155456
  C     -1.651911    4.328732    2.135993
  H      0.392353    4.671658    1.443687
  C     -2.121409    5.728514    1.917783
  O     -2.265852    3.561895    2.884399
  C     -1.577173    6.539743    0.906621
  C     -2.080481    7.822746    0.715543
  C     -3.109919    8.318722    1.519918
  C     -3.650537    7.507280    2.529551
  C     -3.157197    6.214332    2.720936
  H     -3.578461    5.582807    3.496646
  H     -3.480187    9.324105    1.354935
  H     -0.784356    6.165868    0.267223
  H     -1.671762    8.454513   -0.067854
  O     -4.657628    7.895154    3.368098
  C     -5.194298    9.218743    3.189812
  H     -4.419677    9.976235    3.353967
  H     -5.977066    9.315674    3.941734
  H     -5.620473    9.331705    2.186715

----------------------------
CARTESIAN COORDINATES (A.U.)
----------------------------
  NO LB      ZA    FRAG     MASS         X           Y           Z
   0 C     6.0000    0    12.011   -5.878427    0.999363    0.484770
   1 C     6.0000    0    12.011   -4.804996   -1.421262    0.646580
   2 C     6.0000    0    12.011   -2.219230   -1.664670    1.167420
   3 C     6.0000    0    12.011   -0.747675    0.480965    1.527564
   4 C     6.0000    0    12.011   -1.821929    2.911716    1.440844
   5 C     6.0000    0    12.011   -4.411098    3.133585    0.877254
   6 H     1.0000    0     1.008   -5.263281    4.990072    0.712853
   7 H     1.0000    0     1.008   -1.366937   -3.524870    1.270652
   8 H     1.0000    0     1.008    1.261250    0.285335    1.907290
   9 C     6.0000    0    12.011   -0.168001    5.100041    1.827943
  10 H     1.0000    0     1.008    1.778636    4.809927    1.221323
  11 C     6.0000    0    12.011   -0.733805    7.396864    2.778075
  12 H     1.0000    0     1.008   -7.872382    1.174160    0.038014
  13 C     6.0000    0    12.011   -6.465487   -3.643542    0.219120
  14 O     8.0000    0    15.999   -5.213352   -5.858465    0.461630
  15 C     6.0000    0    12.011   -6.730347   -8.110259    0.062486
  16 H     1.0000    0     1.008   -5.428120   -9.681911    0.324108
  17 H     1.0000    0     1.008   -7.508303   -8.102145   -1.849151
  18 H     1.0000    0     1.008   -8.261385   -8.178794    1.444898
  19 O     8.0000    0    15.999   -8.716036   -3.519046   -0.293770
  20 C     6.0000    0    12.011   -3.121659    8.180119    4.036442
  21 H     1.0000    0     1.008    0.741440    8.828155    2.728173
  22 C     6.0000    0    12.011   -4.008882   10.825324    3.624085
  23 O     8.0000    0    15.999   -4.281841    6.731005    5.450724
  24 C     6.0000    0    12.011   -2.980425   12.358323    1.713265
  25 C     6.0000    0    12.011   -3.931540   14.782848    1.352181
  26 C     6.0000    0    12.011   -5.876895   15.720107    2.872228
  27 C     6.0000    0    12.011   -6.898515   14.186703    4.780158
  28 C     6.0000    0    12.011   -5.966237   11.743385    5.141823
  29 H     1.0000    0     1.008   -6.762312   10.549976    6.607703
  30 H     1.0000    0     1.008   -6.576601   17.620004    2.560456
  31 H     1.0000    0     1.008   -1.482218   11.651801    0.504979
  32 H     1.0000    0     1.008   -3.159172   15.976714   -0.128225
  33 O     8.0000    0    15.999   -8.801641   14.919679    6.364783
  34 C     6.0000    0    12.011   -9.815801   17.420900    6.027871
  35 H     1.0000    0     1.008   -8.351979   18.852353    6.338078
  36 H     1.0000    0     1.008  -11.295019   17.604072    7.448797
  37 H     1.0000    0     1.008  -10.621154   17.634368    4.132293

--------------------------------
INTERNAL COORDINATES (ANGSTROEM)
--------------------------------
 C      0   0   0     0.000000000000     0.00000000     0.00000000
 C      1   0   0     1.403852522838     0.00000000     0.00000000
 C      2   1   0     1.401741497080   119.39438048     0.00000000
 C      3   2   1     1.389926849747   119.92038756     0.25048645
 C      4   3   2     1.407063063736   121.06157956     1.59327318
 C      1   2   3     1.386202039888   120.50473146   358.91493306
 H      6   1   2     1.084463087385   119.54545984   178.93715981
 H      3   2   1     1.084155058973   119.96224673   180.84414486
 H      4   3   2     1.086843183644   119.70567267   180.77832046
 C      5   4   3     1.465934339211   118.44922685   180.18129647
 H     10   5   4     1.089841886884   114.32328643    29.51017231
 C     10   5   4     1.348964357964   129.14721053   208.28716069
 H      1   2   3     1.085265462688   118.97681690   178.59769068
 C      2   1   3     1.485327685832   118.27821577   180.84483199
 O     14   2   1     1.352515068757   112.44798609   180.84549422
 C     15  14   2     1.452219177877   115.24347123   180.09170583
 H     16  15  14     1.088914017413   104.97449257   179.82564318
 H     16  15  14     1.092163101734   109.86791761    60.34507730
 H     16  15  14     1.092188724770   109.86979634   299.27966857
 O     14   2   1     1.223249718119   124.54869377     0.78342483
 C     12  10   5     1.487244195470   127.34142703     9.85356978
 H     12  10   5     1.088026423505   117.31716786   186.07252027
 C     21  12  10     1.492459053304   117.59352678   214.67980595
 O     21  12  10     1.234939364343   121.37745462    37.41957365
 C     23  21  12     1.405963991033   121.63746615    13.70574862
 C     25  23  21     1.391376036116   119.39269533   177.87843768
 C     26  25  23     1.397409279463   120.97819828     0.50877490
 C     27  26  25     1.403590277628   119.51225032   359.55475271
 C     28  27  26     1.397042526893   119.83936870   359.96267787
 H     29  28  27     1.085363536469   119.95687044   180.41742885
 H     27  26  25     1.084025605393   119.55082459   179.60434219
 H     25  23  21     1.084974704245   120.52175218   358.99472946
 H     26  25  23     1.086228149877   119.95013249   180.45586425
 O     28  27  26     1.366689466228   124.13177414   180.05527334
 C     34  28  27     1.439336479415   117.37013357     0.35644592
 H     35  34  28     1.095800734252   110.70451323   298.41890185
 H     35  34  28     1.089728563925   105.31689897   179.49689927
 H     35  34  28     1.095713456441   110.68461215    60.57043725

---------------------------
INTERNAL COORDINATES (A.U.)
---------------------------
 C      0   0   0     0.000000000000     0.00000000     0.00000000
 C      1   0   0     2.652896800578     0.00000000     0.00000000
 C      2   1   0     2.648907540033   119.39438048     0.00000000
 C      3   2   1     2.626581092205   119.92038756     0.25048645
 C      4   3   2     2.658963843617   121.06157956     1.59327318
 C      1   2   3     2.619542221670   120.50473146   358.91493306
 H      6   1   2     2.049338237505   119.54545984   178.93715981
 H      3   2   1     2.048756148164   119.96224673   180.84414486
 H      4   3   2     2.053835967606   119.70567267   180.77832046
 C      5   4   3     2.770214431419   118.44922685   180.18129647
 H     10   5   4     2.059502695487   114.32328643    29.51017231
 C     10   5   4     2.549173200972   129.14721053   208.28716069
 H      1   2   3     2.050854507084   118.97681690   178.59769068
 C      2   1   3     2.806862545354   118.27821577   180.84483199
 O     14   2   1     2.555883071952   112.44798609   180.84549422
 C     15  14   2     2.744296532616   115.24347123   180.09170583
 H     16  15  14     2.057749276299   104.97449257   179.82564318
 H     16  15  14     2.063889155852   109.86791761    60.34507730
 H     16  15  14     2.063937576372   109.86979634   299.27966857
 O     14   2   1     2.311606960641   124.54869377     0.78342483
 C     12  10   5     2.810484223702   127.34142703     9.85356978
 H     12  10   5     2.056071966894   117.31716786   186.07252027
 C     21  12  10     2.820338876836   117.59352678   214.67980595
 O     21  12  10     2.333697190607   121.37745462    37.41957365
 C     23  21  12     2.656886897208   121.63746615    13.70574862
 C     25  23  21     2.629319657560   119.39269533   177.87843768
 C     26  25  23     2.640720835185   120.97819828     0.50877490
 C     27  26  25     2.652401228951   119.51225032   359.55475271
 C     28  27  26     2.640027773270   119.83936870   359.96267787
 H     29  28  27     2.051039839671   119.95687044   180.41742885
 H     27  26  25     2.048511516352   119.55082459   179.60434219
 H     25  23  21     2.050305053256   120.52175218   358.99472946
 H     26  25  23     2.052673722224   119.95013249   180.45586425
 O     28  27  26     2.582668801286   124.13177414   180.05527334
 C     34  28  27     2.719951760657   117.37013357     0.35644592
 H     35  34  28     2.070763285087   110.70451323   298.41890185
 H     35  34  28     2.059288546130   105.31689897   179.49689927
 H     35  34  28     2.070598353926   110.68461215    60.57043725

---------------------
BASIS SET INFORMATION
---------------------
There are 3 groups of distinct atoms

 Group   1 Type C   : 15s8p3d2f1g contracted to 7s4p3d2f1g pattern {8211111/5111/111/11/1}
 Group   2 Type H   : 7s3p2d1f contracted to 4s3p2d1f pattern {4111/111/11/1}
 Group   3 Type O   : 15s8p3d2f1g contracted to 7s4p3d2f1g pattern {8211111/5111/111/11/1}

Atom   0C    basis set group =>   1
Atom   1C    basis set group =>   1
Atom   2C    basis set group =>   1
Atom   3C    basis set group =>   1
Atom   4C    basis set group =>   1
Atom   5C    basis set group =>   1
Atom   6H    basis set group =>   2
Atom   7H    basis set group =>   2
Atom   8H    basis set group =>   2
Atom   9C    basis set group =>   1
Atom  10H    basis set group =>   2
Atom  11C    basis set group =>   1
Atom  12H    basis set group =>   2
Atom  13C    basis set group =>   1
Atom  14O    basis set group =>   3
Atom  15C    basis set group =>   1
Atom  16H    basis set group =>   2
Atom  17H    basis set group =>   2
Atom  18H    basis set group =>   2
Atom  19O    basis set group =>   3
Atom  20C    basis set group =>   1
Atom  21H    basis set group =>   2
Atom  22C    basis set group =>   1
Atom  23O    basis set group =>   3
Atom  24C    basis set group =>   1
Atom  25C    basis set group =>   1
Atom  26C    basis set group =>   1
Atom  27C    basis set group =>   1
Atom  28C    basis set group =>   1
Atom  29H    basis set group =>   2
Atom  30H    basis set group =>   2
Atom  31H    basis set group =>   2
Atom  32H    basis set group =>   2
Atom  33O    basis set group =>   3
Atom  34C    basis set group =>   1
Atom  35H    basis set group =>   2
Atom  36H    basis set group =>   2
Atom  37H    basis set group =>   2
----------------------------------
AUXILIARY/JK BASIS SET INFORMATION
----------------------------------
There are 3 groups of distinct atoms

 Group   1 Type C   : 14s10p6d2f1g contracted to 10s8p5d1f1g pattern {5111111111/31111111/21111/2/1}
 Group   2 Type H   : 4s2p2d contracted to 2s2p2d pattern {31/11/11}
 Group   3 Type O   : 14s10p6d2f1g contracted to 10s8p4d2f1g pattern {5111111111/31111111/3111/11/1}

Atom   0C    basis set group =>   1
Atom   1C    basis set group =>   1
Atom   2C    basis set group =>   1
Atom   3C    basis set group =>   1
Atom   4C    basis set group =>   1
Atom   5C    basis set group =>   1
Atom   6H    basis set group =>   2
Atom   7H    basis set group =>   2
Atom   8H    basis set group =>   2
Atom   9C    basis set group =>   1
Atom  10H    basis set group =>   2
Atom  11C    basis set group =>   1
Atom  12H    basis set group =>   2
Atom  13C    basis set group =>   1
Atom  14O    basis set group =>   3
Atom  15C    basis set group =>   1
Atom  16H    basis set group =>   2
Atom  17H    basis set group =>   2
Atom  18H    basis set group =>   2
Atom  19O    basis set group =>   3
Atom  20C    basis set group =>   1
Atom  21H    basis set group =>   2
Atom  22C    basis set group =>   1
Atom  23O    basis set group =>   3
Atom  24C    basis set group =>   1
Atom  25C    basis set group =>   1
Atom  26C    basis set group =>   1
Atom  27C    basis set group =>   1
Atom  28C    basis set group =>   1
Atom  29H    basis set group =>   2
Atom  30H    basis set group =>   2
Atom  31H    basis set group =>   2
Atom  32H    basis set group =>   2
Atom  33O    basis set group =>   3
Atom  34C    basis set group =>   1
Atom  35H    basis set group =>   2
Atom  36H    basis set group =>   2
Atom  37H    basis set group =>   2


           ************************************************************
           *        Program running with 8 parallel MPI-processes     *
           *              working on a common directory               *
           ************************************************************
------------------------------------------------------------------------------
                           ORCA GTO INTEGRAL CALCULATION
                           -- RI-GTO INTEGRALS CHOSEN --
------------------------------------------------------------------------------
------------------------------------------------------------------------------
                   ___                                                        
                  /   \      - P O W E R E D   B Y -                         
                 /     \                                                     
                 |  |  |   _    _      __       _____    __    __             
                 |  |  |  | |  | |    /  \     |  _  \  |  |  /  |          
                  \  \/   | |  | |   /    \    | | | |  |  | /  /          
                 / \  \   | |__| |  /  /\  \   | |_| |  |  |/  /          
                |  |  |   |  __  | /  /__\  \  |    /   |      \           
                |  |  |   | |  | | |   __   |  |    \   |  |\   \          
                \     /   | |  | | |  |  |  |  | |\  \  |  | \   \       
                 \___/    |_|  |_| |__|  |__|  |_| \__\ |__|  \__/        
                                                                              
                      - O R C A' S   B I G   F R I E N D -                    
                                      &                                       
                       - I N T E G R A L  F E E D E R -                       
                                                                              
 v1 FN, 2020, v2 2021                                                         
------------------------------------------------------------------------------


Reading SHARK input file MA_sp.SHARKINP.tmp ... ok
----------------------
SHARK INTEGRAL PACKAGE
----------------------

Number of atoms                             ...     38
Number of basis functions                   ...   1734
Number of shells                            ...    534
Maximum angular momentum                    ...      4
Integral batch strategy                     ... SHARK/LIBINT Hybrid
RI-J (if used) integral strategy            ... SPLIT-RIJ (Revised 2003 algorithm where possible)
Printlevel                                  ...      1
Contraction scheme used                     ... SEGMENTED contraction
Coulomb Range Separation                    ... NOT USED
Exchange Range Separation                   ... NOT USED
Finite Nucleus Model                        ... NOT USED
Auxiliary Coulomb fitting basis             ... NOT available
Auxiliary J/K fitting basis                 ... AVAILABLE
   # of basis functions in Aux-JK           ...   1946
   # of shells in Aux-JK                    ...    646
   Maximum angular momentum in Aux-JK       ...      4
Auxiliary Correlation fitting basis         ... NOT available
Auxiliary 'external' fitting basis          ... NOT available
Integral threshold                          ...     2.500000e-11
Primitive cut-off                           ...     2.500000e-12
Primitive pair pre-selection threshold      ...     2.500000e-12

Calculating pre-screening integrals         ... done (  1.4 sec) Dimension = 534
Organizing shell pair data                  ... done (  3.1 sec)
Shell pair information
Total number of shell pairs                 ...    142845
Shell pairs after pre-screening             ...     73309
Total number of primitive shell pairs       ...    359235
Primitive shell pairs kept                  ...    129799
          la=0 lb=0:  11435 shell pairs
          la=1 lb=0:  16616 shell pairs
          la=1 lb=1:   5875 shell pairs
          la=2 lb=0:  10145 shell pairs
          la=2 lb=1:   7439 shell pairs
          la=2 lb=2:   2320 shell pairs
          la=3 lb=0:   5983 shell pairs
          la=3 lb=1:   4410 shell pairs
          la=3 lb=2:   2666 shell pairs
          la=3 lb=3:    802 shell pairs
          la=4 lb=0:   2258 shell pairs
          la=4 lb=1:   1660 shell pairs
          la=4 lb=2:    997 shell pairs
          la=4 lb=3:    582 shell pairs
          la=4 lb=4:    121 shell pairs

Calculating one electron integrals          ... done (  0.5 sec)
Calculating RI/JK V-Matrix + Cholesky decomp... done (  0.5 sec)
Calculating Nuclear repulsion               ... done (  0.0 sec) ENN=   1579.252342137317 Eh

SHARK setup successfully completed in  11.6 seconds

Maximum memory used throughout the entire GTOINT-calculation: 134.8 MB


           ************************************************************
           *        Program running with 8 parallel MPI-processes     *
           *              working on a common directory               *
           ************************************************************
-------------------------------------------------------------------------------
                                 ORCA SCF
-------------------------------------------------------------------------------

------------
SCF SETTINGS
------------
Hamiltonian:
 Density Functional     Method          .... DFT(GTOs)
 Exchange Functional    Exchange        .... PW6
 Correlation Functional Correlation     .... B95
 Gradients option       PostSCFGGA      .... off
 Hybrid DFT is turned on
   Fraction HF Exchange ScalHFX         ....  0.280000
   Scaling of DF-GGA-X  ScalDFX         ....  0.720000
   Scaling of DF-GGA-C  ScalDFC         ....  1.000000
   Scaling of DF-LDA-C  ScalLDAC        ....  1.000000
   Perturbative correction              ....  0.000000
   Density functional embedding theory  .... OFF
   NL short-range parameter             ....  9.000000
 RI-approximation to the Coulomb term is turned on
   Number of AuxJK basis functions      .... 1946
   RI-JK (J+K treated both via RI)      .... on


General Settings:
 Integral files         IntName         .... MA_sp
 Hartree-Fock type      HFTyp           .... RHF
 Total Charge           Charge          ....    0
 Multiplicity           Mult            ....    1
 Number of Electrons    NEL             ....  156
 Basis Dimension        Dim             .... 1734
 Nuclear Repulsion      ENuc            ....   1579.2523421373 Eh

Convergence Acceleration:
 DIIS                   CNVDIIS         .... on
   Start iteration      DIISMaxIt       ....    12
   Startup error        DIISStart       ....  0.200000
   # of expansion vecs  DIISMaxEq       ....     5
   Bias factor          DIISBfac        ....   1.050
   Max. coefficient     DIISMaxC        ....  10.000
 Trust-Rad. Augm. Hess. CNVTRAH         .... auto
   Auto Start mean grad. ratio tolernc. ....  1.125000
   Auto Start start iteration           ....    20
   Auto Start num. interpolation iter.  ....    10
   Max. Number of Micro iterations      ....    16
   Max. Number of Macro iterations      .... Maxiter - #DIIS iter
   Number of Davidson start vectors     ....     2
   Converg. threshold I  (grad. norm)   ....   1.000e-05
   Converg. threshold II (energy diff.) ....   1.000e-08
   Grad. Scal. Fac. for Micro threshold ....   0.100
   Minimum threshold for Micro iter.    ....   0.010
   NR start threshold (gradient norm)   ....   0.001
   Initial trust radius                 ....   0.400
   Minimum AH scaling param. (alpha)    ....   1.000
   Maximum AH scaling param. (alpha)    .... 1000.000
   Orbital update algorithm             .... Taylor
   White noise on init. David. guess    .... on
   Maximum white noise                  ....   0.010
   Quad. conv. algorithm                .... NR
 SOSCF                  CNVSOSCF        .... on
   Start iteration      SOSCFMaxIt      ....   150
   Startup grad/error   SOSCFStart      ....  0.003300
 Level Shifting         CNVShift        .... on
   Level shift para.    LevelShift      ....    0.2500
   Turn off err/grad.   ShiftErr        ....    0.0010
 Zerner damping         CNVZerner       .... off
 Static damping         CNVDamp         .... on
   Fraction old density DampFac         ....    0.7000
   Max. Damping (<1)    DampMax         ....    0.9800
   Min. Damping (>=0)   DampMin         ....    0.0000
   Turn off err/grad.   DampErr         ....    0.1000
 Fernandez-Rico         CNVRico         .... off

SCF Procedure:
 Maximum # iterations   MaxIter         ....   125
 SCF integral mode      SCFMode         .... Direct
   Integral package                     .... SHARK and LIBINT hybrid scheme
 Reset frequency        DirectResetFreq ....    20
 Integral Threshold     Thresh          ....  2.500e-11 Eh
 Primitive CutOff       TCut            ....  2.500e-12 Eh

Convergence Tolerance:
 Convergence Check Mode ConvCheckMode   .... Total+1el-Energy
 Convergence forced     ConvForced      .... 0
 Energy Change          TolE            ....  1.000e-08 Eh
 1-El. energy change                    ....  1.000e-05 Eh
 Orbital Gradient       TolG            ....  1.000e-05
 Orbital Rotation angle TolX            ....  1.000e-05
 DIIS Error             TolErr          ....  5.000e-07


Diagonalization of the overlap matrix:
Smallest eigenvalue                        ... 5.082e-06
Time for diagonalization                   ...    1.355 sec
Threshold for overlap eigenvalues          ... 1.000e-08
Number of eigenvalues below threshold      ... 0
Time for construction of square roots      ...    1.072 sec
Total time needed                          ...    2.451 sec

Time for model grid setup =    2.055 sec

------------------------------
INITIAL GUESS: MODEL POTENTIAL
------------------------------
Loading Hartree-Fock densities                     ... done
Calculating cut-offs                               ... done
Initializing the effective Hamiltonian             ... done
Setting up the integral package (SHARK)            ... done
Starting the Coulomb interaction                   ... done (   3.8 sec)
Reading the grid                                   ... done
Mapping shells                                     ... done
Starting the XC term evaluation                    ... done (   2.2 sec)
  promolecular density results
     # of electrons  =    155.990776158
     EX              =   -132.165470621
     EC              =    -10.054487315
     EX+EC           =   -142.219957936
Transforming the Hamiltonian                       ... done (   0.9 sec)
Diagonalizing the Hamiltonian                      ... done (   1.5 sec)
Back transforming the eigenvectors                 ... done (   0.5 sec)
Now organizing SCF variables                       ... done
                      ------------------
                      INITIAL GUESS DONE (  11.1 sec)
                      ------------------
-------------------
DFT GRID GENERATION
-------------------

General Integration Accuracy     IntAcc      ... 4.388
Radial Grid Type                 RadialGrid  ... OptM3 with GC (2021)
Angular Grid (max. ang.)         AngularGrid ... 4 (Lebedev-302)
Angular grid pruning method      GridPruning ... 4 (adaptive)
Weight generation scheme         WeightScheme... Becke
Basis function cutoff            BFCut       ... 1.0000e-11
Integration weight cutoff        WCut        ... 1.0000e-14
Angular grids for H and He will be reduced by one unit
Partially contracted basis set               ... off
Rotationally invariant grid construction     ... off

Total number of grid points                  ...   188934
Total number of batches                      ...     2971
Average number of points per batch           ...       63
Average number of grid points per atom       ...     4972
Time for grid setup =    5.697 sec


--------------------
CPCM SOLVATION MODEL
--------------------
CPCM parameters:
  Epsilon                                         ...       7.2500
  Refrac                                          ...       1.4070
  Rsolv                                           ...       1.3000
  Surface type                                    ... GAUSSIAN VDW
  Epsilon function type                           ...         CPCM
Radii:
 Radius for C  used is    3.8550 Bohr (=   2.0400 Ang.)
 Radius for H  used is    2.4944 Bohr (=   1.3200 Ang.)
 Radius for O  used is    3.4469 Bohr (=   1.8240 Ang.)
Calculating surface                               ...        done! (  0.0s)
GEPOL surface points                              ...         2049
GEPOL Volume                                      ...    2404.4360
GEPOL Surface-area                                ...    1249.9333
Calculating surface distance matrix               ...        done! (  0.1s)
Performing Cholesky decomposition & store         ...        done! (  0.6s)
Overall time for CPCM initialization              ...                 0.7s
--------------
SCF ITERATIONS
--------------
ITER       Energy         Delta-E        Max-DP      RMS-DP      [F,P]     Damp
  0   -997.4249993771   0.000000000000 0.03617446  0.00025194  0.3764385 0.7000
  1   -997.3788576114   0.046141765636 0.03267792  0.00025168  0.2038929 0.7000
                               ***Turning on DIIS***
  2   -997.5851089192  -0.206251307791 0.06150464  0.00044338  0.0580681 0.0000
  3   -998.0280937282  -0.442984809000 0.01254612  0.00007952  0.1263146 0.7000
  4   -998.1255909394  -0.097497211136 0.04790094  0.00030068  0.0919786 0.0000
  5   -998.1245517239   0.001039215484 0.00669205  0.00004221  0.0383940 0.0000
  6   -998.1291510122  -0.004599288370 0.00262996  0.00001681  0.0084659 0.0000
                      *** Initiating the SOSCF procedure ***
                           *** Shutting down DIIS ***
                      *** Re-Reading the Fockian *** 
                      *** Removing any level shift *** 
ITER      Energy       Delta-E        Grad      Rot      Max-DP    RMS-DP
  7   -998.12936611  -0.0002150960  0.000354  0.000354  0.000835  0.000007
  8   -998.12940680  -0.0000406912  0.000228  0.000906  0.000942  0.000007
  9   -998.12940573   0.0000010690  0.000284  0.000346  0.000331  0.000003
 10   -998.12941425  -0.0000085187  0.000048  0.000118  0.000210  0.000002
 11   -998.12941420   0.0000000540  0.000053  0.000076  0.000062  0.000001
 12   -998.12941485  -0.0000006570  0.000016  0.000028  0.000061  0.000000
 13   -998.12941483   0.0000000184  0.000017  0.000015  0.000033  0.000000
                  ***Gradient check signals convergence***
              ***Rediagonalizing the Fockian in SOSCF/NRSCF***

               *****************************************************
               *                     SUCCESS                       *
               *           SCF CONVERGED AFTER  14 CYCLES          *
               *****************************************************


----------------
TOTAL SCF ENERGY
----------------

Total Energy       :         -998.12941488 Eh          -27160.48219 eV

Components:
Nuclear Repulsion  :         1579.25234214 Eh           42973.64097 eV
Electronic Energy  :        -2577.38175701 Eh          -70134.12316 eV
One Electron Energy:        -4492.53013466 Eh         -122247.95993 eV
Two Electron Energy:         1915.14837765 Eh           52113.83677 eV
CPCM Dielectric    :           -0.02267013 Eh              -0.61689 eV

Virial components:
Potential Energy   :        -1991.52767809 Eh          -54192.22320 eV
Kinetic Energy     :          993.39826321 Eh           27031.74101 eV
Virial Ratio       :            2.00476259


DFT components:
N(Alpha)           :       78.000012051889 electrons
N(Beta)            :       78.000012051889 electrons
N(Total)           :      156.000024103778 electrons
E(X)               :      -96.940088611246 Eh       
E(C)               :       -5.539874713914 Eh       
E(XC)              :     -102.479963325160 Eh       
DFET-embed. en.    :        0.000000000000 Eh       
CPCM Solvation Model Properties:
Surface-charge          :           -0.03525588
Charge-correction       :           -0.00024205 Eh              -0.00659 eV
Free-energy (cav+disp)  :  This term is not implemented in the current solvation scheme

---------------
SCF CONVERGENCE
---------------

  Last Energy change         ...   -4.1442e-08  Tolerance :   1.0000e-08
  Last MAX-Density change    ...    5.0984e-05  Tolerance :   1.0000e-07
  Last RMS-Density change    ...    2.7411e-07  Tolerance :   5.0000e-09
  Last Orbital Gradient      ...    1.6344e-06  Tolerance :   1.0000e-05
  Last Orbital Rotation      ...    6.8087e-06  Tolerance :   1.0000e-05

             **** THE GBW FILE WAS UPDATED (MA_sp.gbw) ****
             **** DENSITY MA_sp.scfp WAS UPDATED ****
             **** ENERGY FILE WAS UPDATED (MA_sp.en.tmp) ****
             **** THE GBW FILE WAS UPDATED (MA_sp.gbw) ****
             **** DENSITY MA_sp.scfp WAS UPDATED ****
----------------
ORBITAL ENERGIES
----------------

  NO   OCC          E(Eh)            E(eV) 
   0   2.0000     -19.346809      -526.4534 
   1   2.0000     -19.332809      -526.0725 
   2   2.0000     -19.291434      -524.9466 
   3   2.0000     -19.290731      -524.9275 
   4   2.0000     -10.436653      -283.9958 
   5   2.0000     -10.398954      -282.9699 
   6   2.0000     -10.372001      -282.2365 
   7   2.0000     -10.347154      -281.5604 
   8   2.0000     -10.346133      -281.5326 
   9   2.0000     -10.329887      -281.0905 
  10   2.0000     -10.328372      -281.0493 
  11   2.0000     -10.326317      -280.9934 
  12   2.0000     -10.321027      -280.8494 
  13   2.0000     -10.316922      -280.7377 
  14   2.0000     -10.315529      -280.6998 
  15   2.0000     -10.314944      -280.6839 
  16   2.0000     -10.314073      -280.6602 
  17   2.0000     -10.313260      -280.6381 
  18   2.0000     -10.312803      -280.6256 
  19   2.0000     -10.312650      -280.6215 
  20   2.0000     -10.310036      -280.5504 
  21   2.0000     -10.308993      -280.5219 
  22   2.0000      -1.137999       -30.9665 
  23   2.0000      -1.098613       -29.8948 
  24   2.0000      -1.073627       -29.2149 
  25   2.0000      -1.050450       -28.5842 
  26   2.0000      -0.903119       -24.5751 
  27   2.0000      -0.892412       -24.2838 
  28   2.0000      -0.842160       -22.9164 
  29   2.0000      -0.803805       -21.8727 
  30   2.0000      -0.789620       -21.4867 
  31   2.0000      -0.785149       -21.3650 
  32   2.0000      -0.782576       -21.2950 
  33   2.0000      -0.745629       -20.2896 
  34   2.0000      -0.722635       -19.6639 
  35   2.0000      -0.697870       -18.9900 
  36   2.0000      -0.659922       -17.9574 
  37   2.0000      -0.640776       -17.4364 
  38   2.0000      -0.630143       -17.1471 
  39   2.0000      -0.616827       -16.7847 
  40   2.0000      -0.591216       -16.0878 
  41   2.0000      -0.571410       -15.5488 
  42   2.0000      -0.562237       -15.2992 
  43   2.0000      -0.543389       -14.7864 
  44   2.0000      -0.517179       -14.0731 
  45   2.0000      -0.513074       -13.9615 
  46   2.0000      -0.509430       -13.8623 
  47   2.0000      -0.506277       -13.7765 
  48   2.0000      -0.503245       -13.6940 
  49   2.0000      -0.490054       -13.3351 
  50   2.0000      -0.484304       -13.1786 
  51   2.0000      -0.480019       -13.0620 
  52   2.0000      -0.473554       -12.8861 
  53   2.0000      -0.458336       -12.4720 
  54   2.0000      -0.452435       -12.3114 
  55   2.0000      -0.450066       -12.2469 
  56   2.0000      -0.443845       -12.0776 
  57   2.0000      -0.435302       -11.8452 
  58   2.0000      -0.429630       -11.6908 
  59   2.0000      -0.424048       -11.5389 
  60   2.0000      -0.420588       -11.4448 
  61   2.0000      -0.399066       -10.8591 
  62   2.0000      -0.396804       -10.7976 
  63   2.0000      -0.394429       -10.7330 
  64   2.0000      -0.391565       -10.6550 
  65   2.0000      -0.384190       -10.4543 
  66   2.0000      -0.378305       -10.2942 
  67   2.0000      -0.365545        -9.9470 
  68   2.0000      -0.354974        -9.6593 
  69   2.0000      -0.348821        -9.4919 
  70   2.0000      -0.332863        -9.0577 
  71   2.0000      -0.326592        -8.8870 
  72   2.0000      -0.311130        -8.4663 
  73   2.0000      -0.287759        -7.8303 
  74   2.0000      -0.282176        -7.6784 
  75   2.0000      -0.281428        -7.6580 
  76   2.0000      -0.262011        -7.1297 
  77   2.0000      -0.251028        -6.8308 
  78   0.0000      -0.089813        -2.4439 
  79   0.0000      -0.054464        -1.4820 
  80   0.0000      -0.017289        -0.4705 
  81   0.0000      -0.010102        -0.2749 
  82   0.0000      -0.003196        -0.0870 
  83   0.0000       0.025186         0.6854 
  84   0.0000       0.030461         0.8289 
  85   0.0000       0.035651         0.9701 
  86   0.0000       0.046015         1.2521 
  87   0.0000       0.047198         1.2843 
  88   0.0000       0.049518         1.3474 
  89   0.0000       0.053096         1.4448 
  90   0.0000       0.063299         1.7224 
  91   0.0000       0.067214         1.8290 
  92   0.0000       0.072936         1.9847 
  93   0.0000       0.076874         2.0919 
  94   0.0000       0.078276         2.1300 
  95   0.0000       0.080673         2.1952 
  96   0.0000       0.087289         2.3752 
  97   0.0000       0.092271         2.5108 
  98   0.0000       0.095015         2.5855 
  99   0.0000       0.097151         2.6436 
 100   0.0000       0.099590         2.7100 
 101   0.0000       0.104354         2.8396 
 102   0.0000       0.110594         3.0094 
 103   0.0000       0.115373         3.1395 
 104   0.0000       0.118272         3.2183 
 105   0.0000       0.126767         3.4495 
 106   0.0000       0.133460         3.6316 
 107   0.0000       0.134349         3.6558 
 108   0.0000       0.137591         3.7440 
 109   0.0000       0.139430         3.7941 
 110   0.0000       0.148986         4.0541 
 111   0.0000       0.150379         4.0920 
 112   0.0000       0.155900         4.2423 
 113   0.0000       0.156180         4.2499 
 114   0.0000       0.157766         4.2930 
 115   0.0000       0.162070         4.4102 
 116   0.0000       0.164875         4.4865 
 117   0.0000       0.172399         4.6912 
 118   0.0000       0.173578         4.7233 
 119   0.0000       0.181328         4.9342 
 120   0.0000       0.183220         4.9857 
 121   0.0000       0.189863         5.1664 
 122   0.0000       0.194599         5.2953 
 123   0.0000       0.202032         5.4976 
 124   0.0000       0.203691         5.5427 
 125   0.0000       0.209643         5.7047 
 126   0.0000       0.213158         5.8003 
 127   0.0000       0.215418         5.8618 
 128   0.0000       0.217091         5.9073 
 129   0.0000       0.223181         6.0731 
 130   0.0000       0.229257         6.2384 
 131   0.0000       0.234490         6.3808 
 132   0.0000       0.236731         6.4418 
 133   0.0000       0.239924         6.5287 
 134   0.0000       0.243404         6.6234 
 135   0.0000       0.245087         6.6692 
 136   0.0000       0.248034         6.7494 
 137   0.0000       0.248813         6.7705 
 138   0.0000       0.253676         6.9029 
 139   0.0000       0.261383         7.1126 
 140   0.0000       0.264059         7.1854 
 141   0.0000       0.268777         7.3138 
 142   0.0000       0.272189         7.4066 
 143   0.0000       0.275291         7.4911 
 144   0.0000       0.279749         7.6124 
 145   0.0000       0.283544         7.7156 
 146   0.0000       0.285753         7.7757 
 147   0.0000       0.287634         7.8269 
 148   0.0000       0.292102         7.9485 
 149   0.0000       0.293700         7.9920 
 150   0.0000       0.300671         8.1817 
 151   0.0000       0.302767         8.2387 
 152   0.0000       0.305511         8.3134 
 153   0.0000       0.310333         8.4446 
 154   0.0000       0.315227         8.5778 
 155   0.0000       0.316428         8.6104 
 156   0.0000       0.318588         8.6692 
 157   0.0000       0.322756         8.7826 
 158   0.0000       0.323767         8.8101 
 159   0.0000       0.328553         8.9404 
 160   0.0000       0.331507         9.0208 
 161   0.0000       0.333348         9.0709 
 162   0.0000       0.334845         9.1116 
 163   0.0000       0.338171         9.2021 
 164   0.0000       0.339695         9.2436 
 165   0.0000       0.343550         9.3485 
 166   0.0000       0.345880         9.4119 
 167   0.0000       0.348657         9.4875 
 168   0.0000       0.354246         9.6395 
 169   0.0000       0.355768         9.6809 
 170   0.0000       0.357260         9.7215 
 171   0.0000       0.363996         9.9048 
 172   0.0000       0.368590        10.0298 
 173   0.0000       0.369248        10.0477 
 174   0.0000       0.374829        10.1996 
 175   0.0000       0.379518        10.3272 
 176   0.0000       0.382431        10.4065 
 177   0.0000       0.390507        10.6262 
 178   0.0000       0.392573        10.6825 
 179   0.0000       0.397848        10.8260 
 180   0.0000       0.404604        11.0098 
 181   0.0000       0.405269        11.0279 
 182   0.0000       0.415045        11.2940 
 183   0.0000       0.419783        11.4229 
 184   0.0000       0.425166        11.5693 
 185   0.0000       0.427551        11.6343 
 186   0.0000       0.435655        11.8548 
 187   0.0000       0.437039        11.8924 
 188   0.0000       0.442089        12.0299 
 189   0.0000       0.446280        12.1439 
 190   0.0000       0.447847        12.1865 
 191   0.0000       0.452200        12.3050 
 192   0.0000       0.458087        12.4652 
 193   0.0000       0.460760        12.5379 
 194   0.0000       0.464874        12.6499 
 195   0.0000       0.468449        12.7471 
 196   0.0000       0.470710        12.8087 
 197   0.0000       0.475850        12.9485 
 198   0.0000       0.480082        13.0637 
 199   0.0000       0.483506        13.1569 
 200   0.0000       0.486665        13.2428 
 201   0.0000       0.491870        13.3845 
 202   0.0000       0.493302        13.4234 
 203   0.0000       0.494030        13.4433 
 204   0.0000       0.497741        13.5442 
 205   0.0000       0.501610        13.6495 
 206   0.0000       0.503687        13.7060 
 207   0.0000       0.510479        13.8908 
 208   0.0000       0.514566        14.0021 
 209   0.0000       0.517630        14.0854 
 210   0.0000       0.519919        14.1477 
 211   0.0000       0.524185        14.2638 
 212   0.0000       0.527625        14.3574 
 213   0.0000       0.533175        14.5084 
 214   0.0000       0.539391        14.6776 
 215   0.0000       0.542505        14.7623 
 216   0.0000       0.548253        14.9187 
 217   0.0000       0.549753        14.9595 
 218   0.0000       0.553846        15.0709 
 219   0.0000       0.556986        15.1564 
 220   0.0000       0.563081        15.3222 
 221   0.0000       0.569413        15.4945 
 222   0.0000       0.574247        15.6261 
 223   0.0000       0.577170        15.7056 
 224   0.0000       0.582617        15.8538 
 225   0.0000       0.588502        16.0139 
 226   0.0000       0.596202        16.2235 
 227   0.0000       0.598897        16.2968 
 228   0.0000       0.601367        16.3640 
 229   0.0000       0.603169        16.4131 
 230   0.0000       0.609516        16.5858 
 231   0.0000       0.612664        16.6714 
 232   0.0000       0.617961        16.8156 
 233   0.0000       0.624595        16.9961 
 234   0.0000       0.631524        17.1847 
 235   0.0000       0.636605        17.3229 
 236   0.0000       0.640822        17.4376 
 237   0.0000       0.643839        17.5197 
 238   0.0000       0.649006        17.6603 
 239   0.0000       0.657497        17.8914 
 240   0.0000       0.661261        17.9938 
 241   0.0000       0.672263        18.2932 
 242   0.0000       0.674594        18.3566 
 243   0.0000       0.678810        18.4714 
 244   0.0000       0.683919        18.6104 
 245   0.0000       0.686208        18.6727 
 246   0.0000       0.690377        18.7861 
 247   0.0000       0.696857        18.9624 
 248   0.0000       0.698353        19.0031 
 249   0.0000       0.699286        19.0285 
 250   0.0000       0.700499        19.0615 
 251   0.0000       0.706859        19.2346 
 252   0.0000       0.713534        19.4163 
 253   0.0000       0.716667        19.5015 
 254   0.0000       0.720151        19.5963 
 255   0.0000       0.726311        19.7639 
 256   0.0000       0.727749        19.8031 
 257   0.0000       0.731348        19.9010 
 258   0.0000       0.733145        19.9499 
 259   0.0000       0.742330        20.1998 
 260   0.0000       0.743726        20.2378 
 261   0.0000       0.745089        20.2749 
 262   0.0000       0.749757        20.4019 
 263   0.0000       0.761688        20.7266 
 264   0.0000       0.766914        20.8688 
 265   0.0000       0.770026        20.9535 
 266   0.0000       0.773201        21.0399 
 267   0.0000       0.778104        21.1733 
 268   0.0000       0.782407        21.2904 
 269   0.0000       0.783091        21.3090 
 270   0.0000       0.786273        21.3956 
 271   0.0000       0.793003        21.5787 
 272   0.0000       0.794312        21.6143 
 273   0.0000       0.795373        21.6432 
 274   0.0000       0.806544        21.9472 
 275   0.0000       0.812676        22.1140 
 276   0.0000       0.816111        22.2075 
 277   0.0000       0.821486        22.3538 
 278   0.0000       0.825426        22.4610 
 279   0.0000       0.827070        22.5057 
 280   0.0000       0.829612        22.5749 
 281   0.0000       0.831421        22.6241 
 282   0.0000       0.834302        22.7025 
 283   0.0000       0.840602        22.8739 
 284   0.0000       0.845628        23.0107 
 285   0.0000       0.848360        23.0850 
 286   0.0000       0.851452        23.1692 
 287   0.0000       0.856381        23.3033 
 288   0.0000       0.860211        23.4075 
 289   0.0000       0.861940        23.4546 
 290   0.0000       0.866017        23.5655 
 291   0.0000       0.868890        23.6437 
 292   0.0000       0.877542        23.8791 
 293   0.0000       0.879586        23.9347 
 294   0.0000       0.883997        24.0548 
 295   0.0000       0.886023        24.1099 
 296   0.0000       0.890697        24.2371 
 297   0.0000       0.897439        24.4206 
 298   0.0000       0.900132        24.4938 
 299   0.0000       0.907370        24.6908 
 300   0.0000       0.911806        24.8115 
 301   0.0000       0.913545        24.8588 
 302   0.0000       0.918550        24.9950 
 303   0.0000       0.923139        25.1199 
 304   0.0000       0.926599        25.2141 
 305   0.0000       0.927474        25.2378 
 306   0.0000       0.934424        25.4270 
 307   0.0000       0.939240        25.5580 
 308   0.0000       0.945837        25.7375 
 309   0.0000       0.948169        25.8010 
 310   0.0000       0.949544        25.8384 
 311   0.0000       0.950979        25.8775 
 312   0.0000       0.959743        26.1159 
 313   0.0000       0.962727        26.1971 
 314   0.0000       0.966151        26.2903 
 315   0.0000       0.972611        26.4661 
 316   0.0000       0.977206        26.5911 
 317   0.0000       0.982226        26.7277 
 318   0.0000       0.986281        26.8381 
 319   0.0000       0.990556        26.9544 
 320   0.0000       0.991830        26.9891 
 321   0.0000       0.997559        27.1450 
 322   0.0000       1.003505        27.3068 
 323   0.0000       1.006443        27.3867 
 324   0.0000       1.006796        27.3963 
 325   0.0000       1.010276        27.4910 
 326   0.0000       1.012622        27.5549 
 327   0.0000       1.015759        27.6402 
 328   0.0000       1.020857        27.7789 
 329   0.0000       1.023583        27.8531 
 330   0.0000       1.029799        28.0223 
 331   0.0000       1.034210        28.1423 
 332   0.0000       1.035167        28.1683 
 333   0.0000       1.037956        28.2442 
 334   0.0000       1.048417        28.5289 
 335   0.0000       1.050536        28.5865 
 336   0.0000       1.054253        28.6877 
 337   0.0000       1.056435        28.7470 
 338   0.0000       1.063368        28.9357 
 339   0.0000       1.064417        28.9643 
 340   0.0000       1.066432        29.0191 
 341   0.0000       1.069874        29.1127 
 342   0.0000       1.072899        29.1951 
 343   0.0000       1.075752        29.2727 
 344   0.0000       1.081864        29.4390 
 345   0.0000       1.087617        29.5956 
 346   0.0000       1.094484        29.7824 
 347   0.0000       1.099156        29.9095 
 348   0.0000       1.101438        29.9716 
 349   0.0000       1.106482        30.1089 
 350   0.0000       1.108395        30.1610 
 351   0.0000       1.117759        30.4158 
 352   0.0000       1.122636        30.5485 
 353   0.0000       1.125108        30.6157 
 354   0.0000       1.129127        30.7251 
 355   0.0000       1.139637        31.0111 
 356   0.0000       1.146758        31.2049 
 357   0.0000       1.150843        31.3160 
 358   0.0000       1.154302        31.4101 
 359   0.0000       1.159979        31.5646 
 360   0.0000       1.164715        31.6935 
 361   0.0000       1.172818        31.9140 
 362   0.0000       1.176067        32.0024 
 363   0.0000       1.180572        32.1250 
 364   0.0000       1.185784        32.2668 
 365   0.0000       1.197691        32.5908 
 366   0.0000       1.202327        32.7170 
 367   0.0000       1.208521        32.8855 
 368   0.0000       1.217804        33.1381 
 369   0.0000       1.219328        33.1796 
 370   0.0000       1.228364        33.4255 
 371   0.0000       1.236839        33.6561 
 372   0.0000       1.240329        33.7511 
 373   0.0000       1.248896        33.9842 
 374   0.0000       1.257523        34.2189 
 375   0.0000       1.259635        34.2764 
 376   0.0000       1.264932        34.4206 
 377   0.0000       1.270198        34.5639 
 378   0.0000       1.275131        34.6981 
 379   0.0000       1.280814        34.8527 
 380   0.0000       1.282869        34.9086 
 381   0.0000       1.287796        35.0427 
 382   0.0000       1.295672        35.2570 
 383   0.0000       1.308682        35.6110 
 384   0.0000       1.312058        35.7029 
 385   0.0000       1.316341        35.8195 
 386   0.0000       1.321452        35.9585 
 387   0.0000       1.323765        36.0215 
 388   0.0000       1.332764        36.2663 
 389   0.0000       1.340040        36.4643 
 390   0.0000       1.345339        36.6085 
 391   0.0000       1.352197        36.7951 
 392   0.0000       1.358254        36.9600 
 393   0.0000       1.361017        37.0352 
 394   0.0000       1.372150        37.3381 
 395   0.0000       1.376690        37.4616 
 396   0.0000       1.377094        37.4726 
 397   0.0000       1.383379        37.6437 
 398   0.0000       1.388283        37.7771 
 399   0.0000       1.393152        37.9096 
 400   0.0000       1.408247        38.3203 
 401   0.0000       1.413834        38.4724 
 402   0.0000       1.424135        38.7527 
 403   0.0000       1.424912        38.7738 
 404   0.0000       1.438259        39.1370 
 405   0.0000       1.442235        39.2452 
 406   0.0000       1.451159        39.4880 
 407   0.0000       1.455276        39.6001 
 408   0.0000       1.459754        39.7219 
 409   0.0000       1.464395        39.8482 
 410   0.0000       1.470364        40.0107 
 411   0.0000       1.476656        40.1819 
 412   0.0000       1.482753        40.3478 
 413   0.0000       1.486942        40.4617 
 414   0.0000       1.491220        40.5782 
 415   0.0000       1.497765        40.7563 
 416   0.0000       1.501845        40.8673 
 417   0.0000       1.504567        40.9414 
 418   0.0000       1.508779        41.0560 
 419   0.0000       1.511566        41.1318 
 420   0.0000       1.519434        41.3459 
 421   0.0000       1.528768        41.5999 
 422   0.0000       1.533243        41.7217 
 423   0.0000       1.545814        42.0637 
 424   0.0000       1.554035        42.2875 
 425   0.0000       1.558970        42.4217 
 426   0.0000       1.566013        42.6134 
 427   0.0000       1.571829        42.7716 
 428   0.0000       1.576107        42.8881 
 429   0.0000       1.590010        43.2664 
 430   0.0000       1.594524        43.3892 
 431   0.0000       1.598824        43.5062 
 432   0.0000       1.614902        43.9437 
 433   0.0000       1.616449        43.9858 
 434   0.0000       1.620335        44.0916 
 435   0.0000       1.625190        44.2237 
 436   0.0000       1.629858        44.3507 
 437   0.0000       1.642520        44.6952 
 438   0.0000       1.644576        44.7512 
 439   0.0000       1.648870        44.8680 
 440   0.0000       1.659669        45.1619 
 441   0.0000       1.663629        45.2696 
 442   0.0000       1.672387        45.5080 
 443   0.0000       1.681190        45.7475 
 444   0.0000       1.684458        45.8364 
 445   0.0000       1.690190        45.9924 
 446   0.0000       1.693450        46.0811 
 447   0.0000       1.700584        46.2753 
 448   0.0000       1.706433        46.4344 
 449   0.0000       1.713305        46.6214 
 450   0.0000       1.714890        46.6645 
 451   0.0000       1.725509        46.9535 
 452   0.0000       1.729548        47.0634 
 453   0.0000       1.737223        47.2722 
 454   0.0000       1.744273        47.4641 
 455   0.0000       1.747141        47.5421 
 456   0.0000       1.751350        47.6566 
 457   0.0000       1.761075        47.9213 
 458   0.0000       1.764336        48.0100 
 459   0.0000       1.767318        48.0912 
 460   0.0000       1.771668        48.2095 
 461   0.0000       1.775110        48.3032 
 462   0.0000       1.779879        48.4330 
 463   0.0000       1.781768        48.4844 
 464   0.0000       1.786744        48.6198 
 465   0.0000       1.795180        48.8493 
 466   0.0000       1.797786        48.9202 
 467   0.0000       1.805770        49.1375 
 468   0.0000       1.809419        49.2368 
 469   0.0000       1.811638        49.2972 
 470   0.0000       1.816023        49.4165 
 471   0.0000       1.824754        49.6541 
 472   0.0000       1.831283        49.8318 
 473   0.0000       1.834630        49.9228 
 474   0.0000       1.842479        50.1364 
 475   0.0000       1.847036        50.2604 
 476   0.0000       1.852674        50.4138 
 477   0.0000       1.858172        50.5634 
 478   0.0000       1.864056        50.7235 
 479   0.0000       1.867758        50.8243 
 480   0.0000       1.874549        51.0091 
 481   0.0000       1.878527        51.1173 
 482   0.0000       1.883357        51.2488 
 483   0.0000       1.886092        51.3232 
 484   0.0000       1.888477        51.3881 
 485   0.0000       1.892613        51.5006 
 486   0.0000       1.894783        51.5597 
 487   0.0000       1.899286        51.6822 
 488   0.0000       1.903166        51.7878 
 489   0.0000       1.905916        51.8626 
 490   0.0000       1.914371        52.0927 
 491   0.0000       1.915866        52.1334 
 492   0.0000       1.924036        52.3557 
 493   0.0000       1.927242        52.4429 
 494   0.0000       1.932316        52.5810 
 495   0.0000       1.934457        52.6393 
 496   0.0000       1.939813        52.7850 
 497   0.0000       1.945873        52.9499 
 498   0.0000       1.949548        53.0499 
 499   0.0000       1.955071        53.2002 
 500   0.0000       1.955899        53.2227 
 501   0.0000       1.960764        53.3551 
 502   0.0000       1.966039        53.4986 
 503   0.0000       1.969706        53.5984 
 504   0.0000       1.969857        53.6025 
 505   0.0000       1.975794        53.7641 
 506   0.0000       1.979492        53.8647 
 507   0.0000       1.990623        54.1676 
 508   0.0000       1.995177        54.2915 
 509   0.0000       1.997136        54.3448 
 510   0.0000       2.002315        54.4858 
 511   0.0000       2.006778        54.6072 
 512   0.0000       2.012094        54.7519 
 513   0.0000       2.013038        54.7775 
 514   0.0000       2.026016        55.1307 
 515   0.0000       2.027429        55.1692 
 516   0.0000       2.034999        55.3751 
 517   0.0000       2.037234        55.4360 
 518   0.0000       2.043788        55.6143 
 519   0.0000       2.047977        55.7283 
 520   0.0000       2.049832        55.7788 
 521   0.0000       2.055904        55.9440 
 522   0.0000       2.057507        55.9876 
 523   0.0000       2.068377        56.2834 
 524   0.0000       2.069346        56.3098 
 525   0.0000       2.075169        56.4682 
 526   0.0000       2.082307        56.6624 
 527   0.0000       2.083197        56.6867 
 528   0.0000       2.090573        56.8874 
 529   0.0000       2.092009        56.9265 
 530   0.0000       2.099265        57.1239 
 531   0.0000       2.101511        57.1850 
 532   0.0000       2.104512        57.2667 
 533   0.0000       2.106901        57.3317 
 534   0.0000       2.114530        57.5393 
 535   0.0000       2.118842        57.6566 
 536   0.0000       2.123739        57.7899 
 537   0.0000       2.125955        57.8502 
 538   0.0000       2.128274        57.9133 
 539   0.0000       2.132076        58.0167 
 540   0.0000       2.138365        58.1879 
 541   0.0000       2.142722        58.3064 
 542   0.0000       2.146091        58.3981 
 543   0.0000       2.151384        58.5421 
 544   0.0000       2.154731        58.6332 
 545   0.0000       2.161339        58.8130 
 546   0.0000       2.166397        58.9507 
 547   0.0000       2.170221        59.0547 
 548   0.0000       2.173466        59.1430 
 549   0.0000       2.180324        59.3296 
 550   0.0000       2.181331        59.3570 
 551   0.0000       2.187075        59.5133 
 552   0.0000       2.187430        59.5230 
 553   0.0000       2.193961        59.7007 
 554   0.0000       2.196068        59.7581 
 555   0.0000       2.199218        59.8438 
 556   0.0000       2.205691        60.0199 
 557   0.0000       2.207422        60.0670 
 558   0.0000       2.213394        60.2295 
 559   0.0000       2.217812        60.3497 
 560   0.0000       2.223988        60.5178 
 561   0.0000       2.228025        60.6276 
 562   0.0000       2.231563        60.7239 
 563   0.0000       2.237844        60.8948 
 564   0.0000       2.245136        61.0933 
 565   0.0000       2.247749        61.1644 
 566   0.0000       2.252771        61.3010 
 567   0.0000       2.257877        61.4399 
 568   0.0000       2.265244        61.6404 
 569   0.0000       2.267090        61.6907 
 570   0.0000       2.270986        61.7967 
 571   0.0000       2.276077        61.9352 
 572   0.0000       2.281104        62.0720 
 573   0.0000       2.283659        62.1415 
 574   0.0000       2.290044        62.3153 
 575   0.0000       2.293284        62.4034 
 576   0.0000       2.298017        62.5322 
 577   0.0000       2.301878        62.6373 
 578   0.0000       2.306128        62.7529 
 579   0.0000       2.313783        62.9612 
 580   0.0000       2.317679        63.0673 
 581   0.0000       2.318269        63.0833 
 582   0.0000       2.325673        63.2848 
 583   0.0000       2.329197        63.3807 
 584   0.0000       2.333775        63.5053 
 585   0.0000       2.340574        63.6903 
 586   0.0000       2.341062        63.7035 
 587   0.0000       2.347409        63.8763 
 588   0.0000       2.352166        64.0057 
 589   0.0000       2.353787        64.0498 
 590   0.0000       2.365664        64.3730 
 591   0.0000       2.371673        64.5365 
 592   0.0000       2.375198        64.6324 
 593   0.0000       2.380384        64.7735 
 594   0.0000       2.384967        64.8983 
 595   0.0000       2.393809        65.1389 
 596   0.0000       2.396011        65.1988 
 597   0.0000       2.403057        65.3905 
 598   0.0000       2.405504        65.4571 
 599   0.0000       2.406042        65.4717 
 600   0.0000       2.409420        65.5636 
 601   0.0000       2.421875        65.9026 
 602   0.0000       2.425881        66.0116 
 603   0.0000       2.429660        66.1144 
 604   0.0000       2.436403        66.2979 
 605   0.0000       2.437846        66.3372 
 606   0.0000       2.445391        66.5425 
 607   0.0000       2.451145        66.6990 
 608   0.0000       2.451599        66.7114 
 609   0.0000       2.460488        66.9533 
 610   0.0000       2.466767        67.1241 
 611   0.0000       2.475363        67.3581 
 612   0.0000       2.478298        67.4379 
 613   0.0000       2.481823        67.5338 
 614   0.0000       2.486279        67.6551 
 615   0.0000       2.489319        67.7378 
 616   0.0000       2.495262        67.8995 
 617   0.0000       2.499331        68.0103 
 618   0.0000       2.502369        68.0929 
 619   0.0000       2.511581        68.3436 
 620   0.0000       2.515460        68.4491 
 621   0.0000       2.516843        68.4868 
 622   0.0000       2.520546        68.5876 
 623   0.0000       2.523649        68.6720 
 624   0.0000       2.531065        68.8738 
 625   0.0000       2.533026        68.9271 
 626   0.0000       2.535188        68.9860 
 627   0.0000       2.542611        69.1880 
 628   0.0000       2.544807        69.2477 
 629   0.0000       2.548880        69.3585 
 630   0.0000       2.558698        69.6257 
 631   0.0000       2.566172        69.8291 
 632   0.0000       2.566901        69.8489 
 633   0.0000       2.571622        69.9774 
 634   0.0000       2.575764        70.0901 
 635   0.0000       2.577237        70.1302 
 636   0.0000       2.586024        70.3693 
 637   0.0000       2.591002        70.5048 
 638   0.0000       2.593290        70.5670 
 639   0.0000       2.599094        70.7249 
 640   0.0000       2.601210        70.7825 
 641   0.0000       2.606646        70.9304 
 642   0.0000       2.610325        71.0305 
 643   0.0000       2.614252        71.1374 
 644   0.0000       2.621364        71.3309 
 645   0.0000       2.623621        71.3924 
 646   0.0000       2.627808        71.5063 
 647   0.0000       2.631006        71.5933 
 648   0.0000       2.634505        71.6885 
 649   0.0000       2.639578        71.8266 
 650   0.0000       2.641477        71.8783 
 651   0.0000       2.648355        72.0654 
 652   0.0000       2.655323        72.2550 
 653   0.0000       2.658272        72.3353 
 654   0.0000       2.660797        72.4040 
 655   0.0000       2.662655        72.4545 
 656   0.0000       2.669388        72.6377 
 657   0.0000       2.675155        72.7947 
 658   0.0000       2.679386        72.9098 
 659   0.0000       2.682094        72.9835 
 660   0.0000       2.685075        73.0646 
 661   0.0000       2.691358        73.2356 
 662   0.0000       2.694914        73.3323 
 663   0.0000       2.701337        73.5071 
 664   0.0000       2.708211        73.6942 
 665   0.0000       2.714191        73.8569 
 666   0.0000       2.717481        73.9464 
 667   0.0000       2.719829        74.0103 
 668   0.0000       2.727195        74.2108 
 669   0.0000       2.730013        74.2874 
 670   0.0000       2.735374        74.4333 
 671   0.0000       2.746733        74.7424 
 672   0.0000       2.748841        74.7998 
 673   0.0000       2.755625        74.9844 
 674   0.0000       2.757855        75.0451 
 675   0.0000       2.759983        75.1029 
 676   0.0000       2.762100        75.1606 
 677   0.0000       2.772261        75.4371 
 678   0.0000       2.781062        75.6766 
 679   0.0000       2.785957        75.8098 
 680   0.0000       2.789696        75.9115 
 681   0.0000       2.792524        75.9884 
 682   0.0000       2.799252        76.1715 
 683   0.0000       2.802376        76.2565 
 684   0.0000       2.804029        76.3015 
 685   0.0000       2.807970        76.4087 
 686   0.0000       2.814418        76.5842 
 687   0.0000       2.816681        76.6458 
 688   0.0000       2.824313        76.8535 
 689   0.0000       2.831610        77.0520 
 690   0.0000       2.835884        77.1683 
 691   0.0000       2.840742        77.3005 
 692   0.0000       2.845048        77.4177 
 693   0.0000       2.848041        77.4991 
 694   0.0000       2.853472        77.6469 
 695   0.0000       2.856786        77.7371 
 696   0.0000       2.859541        77.8121 
 697   0.0000       2.864821        77.9557 
 698   0.0000       2.866877        78.0117 
 699   0.0000       2.871576        78.1396 
 700   0.0000       2.875282        78.2404 
 701   0.0000       2.882838        78.4460 
 702   0.0000       2.888404        78.5975 
 703   0.0000       2.892484        78.7085 
 704   0.0000       2.895908        78.8017 
 705   0.0000       2.911006        79.2125 
 706   0.0000       2.919408        79.4411 
 707   0.0000       2.920470        79.4700 
 708   0.0000       2.931378        79.7669 
 709   0.0000       2.935742        79.8856 
 710   0.0000       2.939842        79.9972 
 711   0.0000       2.945891        80.1618 
 712   0.0000       2.951764        80.3216 
 713   0.0000       2.961662        80.5909 
 714   0.0000       2.971055        80.8465 
 715   0.0000       2.974193        80.9319 
 716   0.0000       2.987361        81.2902 
 717   0.0000       2.995995        81.5252 
 718   0.0000       3.000362        81.6440 
 719   0.0000       3.006715        81.8169 
 720   0.0000       3.008312        81.8603 
 721   0.0000       3.016191        82.0747 
 722   0.0000       3.018379        82.1343 
 723   0.0000       3.022752        82.2533 
 724   0.0000       3.034008        82.5595 
 725   0.0000       3.042555        82.7921 
 726   0.0000       3.045502        82.8723 
 727   0.0000       3.054218        83.1095 
 728   0.0000       3.055036        83.1318 
 729   0.0000       3.073390        83.6312 
 730   0.0000       3.078941        83.7822 
 731   0.0000       3.081412        83.8495 
 732   0.0000       3.085855        83.9704 
 733   0.0000       3.093413        84.1760 
 734   0.0000       3.100951        84.3812 
 735   0.0000       3.118481        84.8582 
 736   0.0000       3.121390        84.9373 
 737   0.0000       3.129268        85.1517 
 738   0.0000       3.131484        85.2120 
 739   0.0000       3.145471        85.5926 
 740   0.0000       3.155338        85.8611 
 741   0.0000       3.162909        86.0671 
 742   0.0000       3.171163        86.2917 
 743   0.0000       3.182942        86.6122 
 744   0.0000       3.190316        86.8129 
 745   0.0000       3.190814        86.8265 
 746   0.0000       3.198545        87.0368 
 747   0.0000       3.204941        87.2109 
 748   0.0000       3.213741        87.4503 
 749   0.0000       3.220521        87.6348 
 750   0.0000       3.230636        87.9101 
 751   0.0000       3.236696        88.0750 
 752   0.0000       3.244772        88.2947 
 753   0.0000       3.252456        88.5038 
 754   0.0000       3.259221        88.6879 
 755   0.0000       3.264495        88.8314 
 756   0.0000       3.282898        89.3322 
 757   0.0000       3.293675        89.6255 
 758   0.0000       3.298183        89.7481 
 759   0.0000       3.299643        89.7879 
 760   0.0000       3.302829        89.8745 
 761   0.0000       3.308985        90.0421 
 762   0.0000       3.312099        90.1268 
 763   0.0000       3.321290        90.3769 
 764   0.0000       3.335187        90.7550 
 765   0.0000       3.340384        90.8965 
 766   0.0000       3.345100        91.0248 
 767   0.0000       3.353487        91.2530 
 768   0.0000       3.361576        91.4731 
 769   0.0000       3.366462        91.6061 
 770   0.0000       3.369808        91.6971 
 771   0.0000       3.377296        91.9009 
 772   0.0000       3.381737        92.0217 
 773   0.0000       3.389589        92.2354 
 774   0.0000       3.395677        92.4011 
 775   0.0000       3.403176        92.6051 
 776   0.0000       3.404190        92.6327 
 777   0.0000       3.411962        92.8442 
 778   0.0000       3.415393        92.9376 
 779   0.0000       3.425286        93.2068 
 780   0.0000       3.431880        93.3862 
 781   0.0000       3.435541        93.4858 
 782   0.0000       3.441739        93.6545 
 783   0.0000       3.446815        93.7926 
 784   0.0000       3.450505        93.8930 
 785   0.0000       3.456063        94.0443 
 786   0.0000       3.463261        94.2401 
 787   0.0000       3.477724        94.6337 
 788   0.0000       3.485231        94.8380 
 789   0.0000       3.495299        95.1119 
 790   0.0000       3.497209        95.1639 
 791   0.0000       3.508620        95.4744 
 792   0.0000       3.509012        95.4851 
 793   0.0000       3.523037        95.8667 
 794   0.0000       3.528193        96.0070 
 795   0.0000       3.532404        96.1216 
 796   0.0000       3.540768        96.3492 
 797   0.0000       3.543480        96.4230 
 798   0.0000       3.548423        96.5575 
 799   0.0000       3.555244        96.7431 
 800   0.0000       3.559951        96.8712 
 801   0.0000       3.563866        96.9777 
 802   0.0000       3.567565        97.0784 
 803   0.0000       3.580908        97.4415 
 804   0.0000       3.592791        97.7648 
 805   0.0000       3.598337        97.9157 
 806   0.0000       3.601695        98.0071 
 807   0.0000       3.613287        98.3225 
 808   0.0000       3.625036        98.6423 
 809   0.0000       3.635049        98.9147 
 810   0.0000       3.643758        99.1517 
 811   0.0000       3.652337        99.3851 
[...]
      g-3     :     0.001891
      g+4     :     0.001559
      g-4     :     0.001358
 23 O s       :     3.257987  s :     3.257987
      pz      :     1.338247  p :     4.301579
      px      :     1.455752
      py      :     1.507580
      dz2     :     0.012905  d :     0.099113
      dxz     :     0.021036
      dyz     :     0.023031
      dx2y2   :     0.025916
      dxy     :     0.016225
      f0      :     0.001539  f :     0.020561
      f+1     :     0.002008
      f-1     :     0.002575
      f+2     :     0.005369
      f-2     :     0.003669
      f+3     :     0.002403
      f-3     :     0.002998
      g0      :     0.000061  g :     0.001101
      g+1     :     0.000058
      g-1     :     0.000103
      g+2     :     0.000097
      g-2     :     0.000165
      g+3     :     0.000198
      g-3     :     0.000255
      g+4     :     0.000062
      g-4     :     0.000103
 24 C s       :     2.583798  s :     2.583798
      pz      :     0.882607  p :     2.710410
      px      :     0.868620
      py      :     0.959183
      dz2     :     0.077686  d :     0.501115
      dxz     :     0.078714
      dyz     :     0.127873
      dx2y2   :     0.105802
      dxy     :     0.111041
      f0      :     0.018453  f :     0.113470
      f+1     :     0.010449
      f-1     :     0.013266
      f+2     :     0.022104
      f-2     :     0.012670
      f+3     :     0.013983
      f-3     :     0.022545
      g0      :     0.000840  g :     0.011253
      g+1     :     0.000800
      g-1     :     0.001579
      g+2     :     0.001398
      g-2     :     0.001190
      g+3     :     0.001295
      g-3     :     0.001437
      g+4     :     0.001593
      g-4     :     0.001121
 25 C s       :     2.591792  s :     2.591792
      pz      :     0.873639  p :     2.705555
      px      :     0.880682
      py      :     0.951234
      dz2     :     0.070885  d :     0.508870
      dxz     :     0.069852
      dyz     :     0.128822
      dx2y2   :     0.114765
      dxy     :     0.124546
      f0      :     0.012860  f :     0.112154
      f+1     :     0.016102
      f-1     :     0.011550
      f+2     :     0.018867
      f-2     :     0.013265
      f+3     :     0.019475
      f-3     :     0.020035
      g0      :     0.000862  g :     0.011338
      g+1     :     0.001148
      g-1     :     0.000972
      g+2     :     0.001118
      g-2     :     0.001214
      g+3     :     0.002010
      g-3     :     0.000890
      g+4     :     0.001974
      g-4     :     0.001149
 26 C s       :     2.587927  s :     2.587927
      pz      :     0.901666  p :     2.727108
      px      :     0.895403
      py      :     0.930039
      dz2     :     0.111937  d :     0.484833
      dxz     :     0.090961
      dyz     :     0.089776
      dx2y2   :     0.095520
      dxy     :     0.096639
      f0      :     0.012397  f :     0.111651
      f+1     :     0.018239
      f-1     :     0.015509
      f+2     :     0.022101
      f-2     :     0.015079
      f+3     :     0.015487
      f-3     :     0.012838
      g0      :     0.000771  g :     0.011189
      g+1     :     0.001346
      g-1     :     0.001124
      g+2     :     0.001528
      g-2     :     0.001524
      g+3     :     0.001730
      g-3     :     0.001652
      g+4     :     0.000596
      g-4     :     0.000918
 27 C s       :     2.586207  s :     2.586207
      pz      :     0.865852  p :     2.655140
      px      :     0.808145
      py      :     0.981143
      dz2     :     0.166841  d :     0.829308
      dxz     :     0.163462
      dyz     :     0.162109
      dx2y2   :     0.182282
      dxy     :     0.154614
      f0      :     0.028852  f :     0.245910
      f+1     :     0.043996
      f-1     :     0.024962
      f+2     :     0.049932
      f-2     :     0.029144
      f+3     :     0.035624
      f-3     :     0.033400
      g0      :     0.001787  g :     0.028067
      g+1     :     0.004656
      g-1     :     0.001835
      g+2     :     0.003548
      g-2     :     0.003463
      g+3     :     0.004658
      g-3     :     0.003632
      g+4     :     0.002578
      g-4     :     0.001910
 28 C s       :     2.582775  s :     2.582775
      pz      :     0.877095  p :     2.699133
      px      :     0.879158
      py      :     0.942880
      dz2     :     0.068710  d :     0.488217
      dxz     :     0.073316
      dyz     :     0.115061
      dx2y2   :     0.113533
      dxy     :     0.117597
      f0      :     0.012728  f :     0.115284
      f+1     :     0.016068
      f-1     :     0.012187
      f+2     :     0.018287
      f-2     :     0.014563
      f+3     :     0.020356
      f-3     :     0.021095
      g0      :     0.000927  g :     0.011559
      g+1     :     0.001162
      g-1     :     0.000916
      g+2     :     0.001128
      g-2     :     0.001241
      g+3     :     0.001971
      g-3     :     0.000961
      g+4     :     0.001940
      g-4     :     0.001312
 29 H s       :     0.777690  s :     0.777690
      pz      :     0.072898  p :     0.191901
      px      :     0.052987
      py      :     0.066016
      dz2     :     0.017752  d :     0.066026
      dxz     :     0.012785
      dyz     :     0.013951
      dx2y2   :     0.011910
      dxy     :     0.009629
      f0      :     0.001422  f :     0.009661
      f+1     :     0.001123
      f-1     :     0.001776
      f+2     :     0.002203
      f-2     :     0.001676
      f+3     :     0.000632
      f-3     :     0.000830
 30 H s       :     0.779615  s :     0.779615
      pz      :     0.050932  p :     0.198779
      px      :     0.057535
      py      :     0.090311
      dz2     :     0.006055  d :     0.066121
      dxz     :     0.003618
      dyz     :     0.019997
      dx2y2   :     0.017523
      dxy     :     0.018928
      f0      :     0.001118  f :     0.009685
      f+1     :     0.000322
      f-1     :     0.001276
      f+2     :     0.001330
      f-2     :     0.000946
      f+3     :     0.002081
      f-3     :     0.002612
 31 H s       :     0.779981  s :     0.779981
      pz      :     0.065645  p :     0.195549
      px      :     0.076492
      py      :     0.053412
      dz2     :     0.015327  d :     0.065590
      dxz     :     0.014006
      dyz     :     0.009478
      dx2y2   :     0.013224
      dxy     :     0.013555
      f0      :     0.000822  f :     0.009607
      f+1     :     0.002277
      f-1     :     0.000588
      f+2     :     0.001764
      f-2     :     0.001792
      f+3     :     0.001321
      f-3     :     0.001043
 32 H s       :     0.788555  s :     0.788555
      pz      :     0.072949  p :     0.187997
      px      :     0.053896
      py      :     0.061152
      dz2     :     0.016993  d :     0.064084
      dxz     :     0.012920
      dyz     :     0.013798
      dx2y2   :     0.011517
      dxy     :     0.008855
      f0      :     0.001379  f :     0.009487
      f+1     :     0.001121
      f-1     :     0.001758
      f+2     :     0.002203
      f-2     :     0.001661
      f+3     :     0.000595
      f-3     :     0.000768
 33 O s       :     3.083913  s :     3.083913
      pz      :     1.476111  p :     4.205284
      px      :     1.395450
      py      :     1.333722
      dz2     :     0.028851  d :     0.183995
      dxz     :     0.030875
      dyz     :     0.034783
      dx2y2   :     0.042871
      dxy     :     0.046615
      f0      :     0.002899  f :     0.027901
      f+1     :     0.004227
      f-1     :     0.002228
      f+2     :     0.004849
      f-2     :     0.004402
      f+3     :     0.003925
      f-3     :     0.005371
      g0      :     0.000060  g :     0.000960
      g+1     :     0.000131
      g-1     :     0.000078
      g+2     :     0.000090
      g-2     :     0.000090
      g+3     :     0.000154
      g-3     :     0.000089
      g+4     :     0.000187
      g-4     :     0.000081
 34 C s       :     2.574188  s :     2.574188
      pz      :     0.982153  p :     2.672450
      px      :     0.935747
      py      :     0.754550
      dz2     :     0.089934  d :     0.517665
      dxz     :     0.095644
      dyz     :     0.078778
      dx2y2   :     0.115491
      dxy     :     0.137819
      f0      :     0.017376  f :     0.146392
      f+1     :     0.009289
      f-1     :     0.017653
      f+2     :     0.021325
      f-2     :     0.015471
      f+3     :     0.025154
      f-3     :     0.040124
      g0      :     0.000732  g :     0.013659
      g+1     :     0.000341
      g-1     :     0.002110
      g+2     :     0.001201
      g-2     :     0.000923
      g+3     :     0.001884
      g-3     :     0.000481
      g+4     :     0.003715
      g-4     :     0.002272
 35 H s       :     0.802513  s :     0.802513
      pz      :     0.054632  p :     0.185783
      px      :     0.070450
      py      :     0.060701
      dz2     :     0.006310  d :     0.064097
      dxz     :     0.015121
      dyz     :     0.010619
      dx2y2   :     0.018605
      dxy     :     0.013443
      f0      :     0.001103  f :     0.008882
      f+1     :     0.000825
      f-1     :     0.000845
      f+2     :     0.000154
      f-2     :     0.002027
      f+3     :     0.001899
      f-3     :     0.002028
 36 H s       :     0.802151  s :     0.802151
      pz      :     0.073513  p :     0.186476
      px      :     0.073664
      py      :     0.039300
      dz2     :     0.021523  d :     0.065034
      dxz     :     0.013515
      dyz     :     0.007869
      dx2y2   :     0.009593
      dxy     :     0.012534
      f0      :     0.001789  f :     0.009178
      f+1     :     0.002337
      f-1     :     0.000225
      f+2     :     0.001609
      f-2     :     0.001653
      f+3     :     0.000692
      f-3     :     0.000872
 37 H s       :     0.802326  s :     0.802326
      pz      :     0.090638  p :     0.185856
      px      :     0.057212
      py      :     0.038006
      dz2     :     0.020262  d :     0.064149
      dxz     :     0.021149
      dyz     :     0.015020
      dx2y2   :     0.003305
      dxy     :     0.004413
      f0      :     0.002835  f :     0.008888
      f+1     :     0.002330
      f-1     :     0.001427
      f+2     :     0.000969
      f-2     :     0.001140
      f+3     :     0.000094
      f-3     :     0.000094


                      *****************************
                      * MAYER POPULATION ANALYSIS *
                      *****************************

  NA   - Mulliken gross atomic population
  ZA   - Total nuclear charge
  QA   - Mulliken gross atomic charge
  VA   - Mayer's total valence
  BVA  - Mayer's bonded valence
  FA   - Mayer's free valence

  ATOM       NA         ZA         QA         VA         BVA        FA
  0 C      6.0988     6.0000    -0.0988     3.7851     3.7851     0.0000
  1 C      5.9640     6.0000     0.0360     3.7194     3.7194     0.0000
  2 C      6.1181     6.0000    -0.1181     3.8298     3.8298     0.0000
  3 C      6.1521     6.0000    -0.1521     3.8594     3.8594     0.0000
  4 C      5.8969     6.0000     0.1031     3.7310     3.7310     0.0000
  5 C      6.0876     6.0000    -0.0876     3.8025     3.8025     0.0000
  6 H      0.8979     1.0000     0.1021     0.9984     0.9984     0.0000
  7 H      0.8724     1.0000     0.1276     0.9942     0.9942    -0.0000
  8 H      0.8767     1.0000     0.1233     0.9869     0.9869     0.0000
  9 C      6.0812     6.0000    -0.0812     3.7601     3.7601    -0.0000
 10 H      0.8737     1.0000     0.1263     0.9840     0.9840    -0.0000
 11 C      6.0720     6.0000    -0.0720     3.7616     3.7616     0.0000
 12 H      0.8734     1.0000     0.1266     0.9981     0.9981     0.0000
 13 C      5.6391     6.0000     0.3609     4.1557     4.1557    -0.0000
 14 O      8.3513     8.0000    -0.3513     2.1506     2.1506     0.0000
 15 C      6.0844     6.0000    -0.0844     3.7980     3.7980     0.0000
 16 H      0.8751     1.0000     0.1249     0.9843     0.9843     0.0000
 17 H      0.8741     1.0000     0.1259     0.9862     0.9862    -0.0000
 18 H      0.8727     1.0000     0.1273     0.9856     0.9856    -0.0000
 19 O      8.4279     8.0000    -0.4279     2.1035     2.1035     0.0000
 20 C      5.8409     6.0000     0.1591     4.0360     4.0360     0.0000
 21 H      0.8867     1.0000     0.1133     0.9913     0.9913    -0.0000
 22 C      5.9383     6.0000     0.0617     3.6850     3.6850     0.0000
 23 O      8.3878     8.0000    -0.3878     2.0603     2.0603     0.0000
 24 C      6.1197     6.0000    -0.1197     3.8099     3.8099     0.0000
 25 C      6.1833     6.0000    -0.1833     3.9127     3.9127     0.0000
 26 C      6.0850     6.0000    -0.0850     3.7848     3.7848    -0.0000
 27 C      5.8835     6.0000     0.1165     3.9481     3.9481    -0.0000
 28 C      6.0762     6.0000    -0.0762     3.7106     3.7106     0.0000
 29 H      0.8807     1.0000     0.1193     1.0150     1.0150     0.0000
 30 H      0.8787     1.0000     0.1213     0.9953     0.9953    -0.0000
 31 H      0.8846     1.0000     0.1154     0.9993     0.9993     0.0000
 32 H      0.8682     1.0000     0.1318     0.9818     0.9818    -0.0000
 33 O      8.3678     8.0000    -0.3678     2.0822     2.0822     0.0000
 34 C      6.0800     6.0000    -0.0800     3.8128     3.8128    -0.0000
 35 H      0.8907     1.0000     0.1093     0.9844     0.9844    -0.0000
 36 H      0.8677     1.0000     0.1323     0.9808     0.9808    -0.0000
 37 H      0.8908     1.0000     0.1092     0.9841     0.9841    -0.0000

  Mayer bond orders larger than 0.100000
B(  0-C ,  1-C ) :   1.2813 B(  0-C ,  5-C ) :   1.3979 B(  0-C , 12-H ) :   0.9466 
B(  1-C ,  2-C ) :   1.2978 B(  1-C , 13-C ) :   1.0262 B(  2-C ,  3-C ) :   1.3994 
B(  2-C ,  7-H ) :   0.9466 B(  3-C ,  4-C ) :   1.3122 B(  3-C ,  8-H ) :   0.9525 
B(  4-C ,  5-C ) :   1.2731 B(  4-C ,  9-C ) :   1.0081 B(  5-C ,  6-H ) :   0.9569 
B(  9-C , 10-H ) :   0.9442 B(  9-C , 11-C ) :   1.6980 B( 11-C , 20-C ) :   1.0376 
B( 11-C , 21-H ) :   0.9392 B( 13-C , 14-O ) :   1.1954 B( 13-C , 19-O ) :   1.8946 
B( 14-O , 15-C ) :   0.8506 B( 15-C , 16-H ) :   0.9628 B( 15-C , 17-H ) :   0.9631 
B( 15-C , 18-H ) :   0.9627 B( 20-C , 22-C ) :   1.0271 B( 20-C , 23-O ) :   1.8941 
B( 22-C , 24-C ) :   1.2890 B( 22-C , 28-C ) :   1.3016 B( 24-C , 25-C ) :   1.4169 
B( 24-C , 31-H ) :   0.9511 B( 25-C , 26-C ) :   1.3596 B( 25-C , 32-H ) :   0.9504 
B( 26-C , 27-C ) :   1.3269 B( 26-C , 30-H ) :   0.9502 B( 27-C , 28-C ) :   1.3303 
B( 27-C , 33-O ) :   1.1282 B( 28-C , 29-H ) :   0.9386 B( 33-O , 34-C ) :   0.8968 
B( 34-C , 35-H ) :   0.9612 B( 34-C , 36-H ) :   0.9676 B( 34-C , 37-H ) :   0.9606 


-------
TIMINGS
-------

Total SCF time: 0 days 0 hours 27 min 1 sec 

Total time                  ....    1621.434 sec
Sum of individual times     ....    1603.937 sec  ( 98.9%)

Fock matrix formation       ....    1533.388 sec  ( 94.6%)
  XC integration            ....     218.350 sec  ( 14.2% of F)
    Basis function eval.    ....      14.787 sec  (  6.8% of XC)
    Density eval.           ....      98.380 sec  ( 45.1% of XC)
    XC-Functional eval.     ....       2.540 sec  (  1.2% of XC)
    XC-Potential eval.      ....      97.191 sec  ( 44.5% of XC)
Diagonalization             ....      19.849 sec  (  1.2%)
Density matrix formation    ....       1.428 sec  (  0.1%)
Population analysis         ....       4.658 sec  (  0.3%)
Initial guess               ....       9.040 sec  (  0.6%)
Orbital Transformation      ....       0.000 sec  (  0.0%)
Orbital Orthonormalization  ....       0.000 sec  (  0.0%)
DIIS solution               ....      12.427 sec  (  0.8%)
SOSCF solution              ....      15.394 sec  (  0.9%)
Grid generation             ....       7.753 sec  (  0.5%)

Maximum memory used throughout the entire SCF-calculation: 812.1 MB


-------------------------------------------------------------------------------
                          DFT DISPERSION CORRECTION                            
                                                                               
                              DFTD3 V3.1  Rev 1                                
                          USING Becke-Johnson damping                          
-------------------------------------------------------------------------------
The PW6B95 functional is recognized
Active option DFTDOPT                   ...         4   

molecular C6(AA) [au] = 16961.399842 


            DFT-D V3
 parameters
 s6 scaling factor         :     1.0000 
 a1 scaling factor         :     0.2076 
 s8 scaling factor         :     0.7257 
 a2 scaling factor         :     6.3750 
 ad hoc parameters k1-k3   :    16.0000     1.3333    -4.0000 

 Edisp/kcal,au: -14.945230386056  -0.023816738089 
 E6   /kcal   : -11.372530203 
 E8   /kcal   :  -3.572700183 
 % E8         :  23.905286773 

-------------------------   ----------------
Dispersion correction           -0.023816738
-------------------------   ----------------


-------------------------   --------------------
FINAL SINGLE POINT ENERGY      -998.153231613247
-------------------------   --------------------


                            ***************************************
                            *     ORCA property calculations      *
                            ***************************************

                                    ---------------------
                                    Active property flags
                                    ---------------------
   (+) Dipole Moment


------------------------------------------------------------------------------
                       ORCA ELECTRIC PROPERTIES CALCULATION
------------------------------------------------------------------------------

Dipole Moment Calculation                       ... on
Quadrupole Moment Calculation                   ... off
Polarizability Calculation                      ... off
GBWName                                         ... MA_sp.gbw
Electron density                                ... MA_sp.scfp
The origin for moment calculation is the CENTER OF MASS  = (-4.835286,  5.479418  2.411815)

-------------
DIPOLE MOMENT
-------------
                                X             Y             Z
Electronic contribution:      2.85377      -4.64175       0.66472
Nuclear contribution   :     -1.45160       6.28843      -1.63335
                        -----------------------------------------
Total Dipole Moment    :      1.40217       1.64668      -0.96862
                        -----------------------------------------
Magnitude (a.u.)       :      2.36978
Magnitude (Debye)      :      6.02351



--------------------
Rotational spectrum 
--------------------
 
Rotational constants in cm-1:     0.022568     0.003129     0.002879 
Rotational constants in MHz :   676.557761    93.806753    86.324693 

 Dipole components along the rotational axes: 
x,y,z [a.u.] :     1.325020     1.651330    -1.064563 
x,y,z [Debye]:     3.367932     4.197348    -2.705904 

 

Timings for individual modules:

Sum of individual times         ...     1634.187 sec (=  27.236 min)
GTO integral calculation        ...       12.123 sec (=   0.202 min)   0.7 %
SCF iterations                  ...     1622.065 sec (=  27.034 min)  99.3 %
                             ****ORCA TERMINATED NORMALLY****
TOTAL RUN TIME: 0 days 0 hours 27 minutes 18 seconds 999 msec
‘MA_freqopt.hess’ -> ‘/home/rothe/Calc/Li_Path/THF/MA/MA_freqopt.hess’
‘MA_freqopt.opt’ -> ‘/home/rothe/Calc/Li_Path/THF/MA/MA_freqopt.opt’
‘MA_sp.cpcm’ -> ‘/home/rothe/Calc/Li_Path/THF/MA/MA_sp.cpcm’
‘MA_sp.densities’ -> ‘/home/rothe/Calc/Li_Path/THF/MA/MA_sp.densities’
‘MA_sp.gbw’ -> ‘/home/rothe/Calc/Li_Path/THF/MA/MA_sp.gbw’
‘MA_sp.job’ -> ‘/home/rothe/Calc/Li_Path/THF/MA/MA_sp.job’
‘MA_sp_property.txt’ -> ‘/home/rothe/Calc/Li_Path/THF/MA/MA_sp_property.txt’
