! Job execution by suborca V 5.02 !
Job started from clu.thch.uni-bonn.de, running /software/cluster/orca_5_0_2_linux_x86-64_openmpi411/orca from /software/cluster/orca_5_0_2_linux_x86-64_openmpi411 on boar231 in /tmp1/rothe/Li-Aldol_freqopt__1Wq3NP
Going to copy the following really necessary files:  

                                 *****************
                                 * O   R   C   A *
                                 *****************

                                            #,                                       
                                            ###                                      
                                            ####                                     
                                            #####                                    
                                            ######                                   
                                           ########,                                 
                                     ,,################,,,,,                         
                               ,,#################################,,                 
                          ,,##########################################,,             
                       ,#########################################, ''#####,          
                    ,#############################################,,   '####,        
                  ,##################################################,,,,####,       
                ,###########''''           ''''###############################       
              ,#####''   ,,,,##########,,,,          '''####'''          '####       
            ,##' ,,,,###########################,,,                        '##       
           ' ,,###''''                  '''############,,,                           
         ,,##''                                '''############,,,,        ,,,,,,###''
      ,#''                                            '''#######################'''  
     '                                                          ''''####''''         
             ,#######,   #######,   ,#######,      ##                                
            ,#'     '#,  ##    ##  ,#'     '#,    #''#        ######   ,####,        
            ##       ##  ##   ,#'  ##            #'  '#       #        #'  '#        
            ##       ##  #######   ##           ,######,      #####,   #    #        
            '#,     ,#'  ##    ##  '#,     ,#' ,#      #,         ##   #,  ,#        
             '#######'   ##     ##  '#######'  #'      '#     #####' # '####'        



                  #######################################################
                  #                        -***-                        #
                  #          Department of theory and spectroscopy      #
                  #    Directorship and core code : Frank Neese         #
                  #        Max Planck Institute fuer Kohlenforschung    #
                  #                Kaiser Wilhelm Platz 1               #
                  #                 D-45470 Muelheim/Ruhr               #
                  #                      Germany                        #
                  #                                                     #
                  #                  All rights reserved                #
                  #                        -***-                        #
                  #######################################################


                         Program Version 5.0.2 -  RELEASE  -


 With contributions from (in alphabetic order):
   Daniel Aravena         : Magnetic Suceptibility
   Michael Atanasov       : Ab Initio Ligand Field Theory (pilot matlab implementation)
   Alexander A. Auer      : GIAO ZORA, VPT2 properties, NMR spectrum
   Ute Becker             : Parallelization
   Giovanni Bistoni       : ED, misc. LED, open-shell LED, HFLD
   Martin Brehm           : Molecular dynamics
   Dmytro Bykov           : SCF Hessian
   Vijay G. Chilkuri      : MRCI spin determinant printing, contributions to CSF-ICE
   Dipayan Datta          : RHF DLPNO-CCSD density
   Achintya Kumar Dutta   : EOM-CC, STEOM-CC
   Dmitry Ganyushin       : Spin-Orbit,Spin-Spin,Magnetic field MRCI
   Miquel Garcia          : C-PCM and meta-GGA Hessian, CC/C-PCM, Gaussian charge scheme
   Yang Guo               : DLPNO-NEVPT2, F12-NEVPT2, CIM, IAO-localization
   Andreas Hansen         : Spin unrestricted coupled pair/coupled cluster methods
   Benjamin Helmich-Paris : MC-RPA, TRAH-SCF, COSX integrals
   Lee Huntington         : MR-EOM, pCC
   Robert Izsak           : Overlap fitted RIJCOSX, COSX-SCS-MP3, EOM
   Marcus Kettner         : VPT2
   Christian Kollmar      : KDIIS, OOCD, Brueckner-CCSD(T), CCSD density, CASPT2, CASPT2-K
   Simone Kossmann        : Meta GGA functionals, TD-DFT gradient, OOMP2, MP2 Hessian
   Martin Krupicka        : Initial AUTO-CI
   Lucas Lang             : DCDCAS
   Marvin Lechner         : AUTO-CI (C++ implementation), FIC-MRCC
   Dagmar Lenk            : GEPOL surface, SMD
   Dimitrios Liakos       : Extrapolation schemes; Compound Job, initial MDCI parallelization
   Dimitrios Manganas     : Further ROCIS development; embedding schemes
   Dimitrios Pantazis     : SARC Basis sets
   Anastasios Papadopoulos: AUTO-CI, single reference methods and gradients
   Taras Petrenko         : DFT Hessian,TD-DFT gradient, ASA, ECA, R-Raman, ABS, FL, XAS/XES, NRVS
   Peter Pinski           : DLPNO-MP2, DLPNO-MP2 Gradient
   Christoph Reimann      : Effective Core Potentials
   Marius Retegan         : Local ZFS, SOC
   Christoph Riplinger    : Optimizer, TS searches, QM/MM, DLPNO-CCSD(T), (RO)-DLPNO pert. Triples
   Tobias Risthaus        : Range-separated hybrids, TD-DFT gradient, RPA, STAB
   Michael Roemelt        : Original ROCIS implementation
   Masaaki Saitow         : Open-shell DLPNO-CCSD energy and density
   Barbara Sandhoefer     : DKH picture change effects
   Avijit Sen             : IP-ROCIS
   Kantharuban Sivalingam : CASSCF convergence, NEVPT2, FIC-MRCI
   Bernardo de Souza      : ESD, SOC TD-DFT
   Georgi Stoychev        : AutoAux, RI-MP2 NMR, DLPNO-MP2 response
   Willem Van den Heuvel  : Paramagnetic NMR
   Boris Wezisla          : Elementary symmetry handling
   Frank Wennmohs         : Technical directorship


 We gratefully acknowledge several colleagues who have allowed us to
 interface, adapt or use parts of their codes:
   Stefan Grimme, W. Hujo, H. Kruse, P. Pracht,  : VdW corrections, initial TS optimization,
                  C. Bannwarth, S. Ehlert          DFT functionals, gCP, sTDA/sTD-DF
   Ed Valeev, F. Pavosevic, A. Kumar             : LibInt (2-el integral package), F12 methods
   Garnet Chan, S. Sharma, J. Yang, R. Olivares  : DMRG
   Ulf Ekstrom                                   : XCFun DFT Library
   Mihaly Kallay                                 : mrcc  (arbitrary order and MRCC methods)
   Jiri Pittner, Ondrej Demel                    : Mk-CCSD
   Frank Weinhold                                : gennbo (NPA and NBO analysis)
   Christopher J. Cramer and Donald G. Truhlar   : smd solvation model
   Lars Goerigk                                  : TD-DFT with DH, B97 family of functionals
   V. Asgeirsson, H. Jonsson                     : NEB implementation
   FAccTs GmbH                                   : IRC, NEB, NEB-TS, DLPNO-Multilevel, CI-OPT
                                                   MM, QMMM, 2- and 3-layer-ONIOM, Crystal-QMMM,
                                                   LR-CPCM, SF, NACMEs, symmetry and pop. for TD-DFT,
                                                   nearIR, NL-DFT gradient (VV10), updates on ESD,
                                                   ML-optimized integration grids
   S Lehtola, MJT Oliveira, MAL Marques          : LibXC Library
   Liviu Ungur et al                             : ANISO software


 Your calculation uses the libint2 library for the computation of 2-el integrals
 For citations please refer to: http://libint.valeyev.net

 Your ORCA version has been built with support for libXC version: 5.1.0
 For citations please refer to: https://tddft.org/programs/libxc/

 This ORCA versions uses:
   CBLAS   interface :  Fast vector & matrix operations
   LAPACKE interface :  Fast linear algebra routines
   SCALAPACK package :  Parallel linear algebra routines
   Shared memory     :  Shared parallel matrices
   BLAS/LAPACK       :  OpenBLAS 0.3.15  USE64BITINT DYNAMIC_ARCH NO_AFFINITY Barcelona SINGLE_THREADED
        Core in use  :  Barcelona
   Copyright (c) 2011-2014, The OpenBLAS Project


Your calculation utilizes the atom-pairwise dispersion correction
with the Becke-Johnson damping scheme (D3BJ)
Cite in your paper:
S.Grimme, S.Ehrlich, L.Goerigk, J Comput Chem, (2011), 32, 1456–1465 
S.Grimme, J.Antony, S.Ehrlich and H.Krieg, J.Chem.Phys., 132, (2010), 154104 
   

================================================================================

----- Orbital basis set information -----
Your calculation utilizes the basis: def2-TZVP
   F. Weigend and R. Ahlrichs, Phys. Chem. Chem. Phys. 7, 3297 (2005).

----- AuxJ basis set information -----
Your calculation utilizes the auxiliary basis: def2/J
   F. Weigend, Phys. Chem. Chem. Phys. 8, 1057 (2006).

================================================================================
                                        WARNINGS
                       Please study these warnings very carefully!
================================================================================


WARNING: Geometry Optimization
  ===> : Switching off AutoStart
         For restart on a previous wavefunction, please use MOREAD

INFO   : the flag for use of the SHARK integral package has been found!

================================================================================
                                       INPUT FILE
================================================================================
NAME = Li-Aldol_freqopt.inp
|  1> ! TPSS D3BJ def2-TZVP RI def2/J CPCM(THF)
|  2> ! Opt numfreq Pal4
|  3> 
|  4> * xyz 0 1
|  5> C         3.12261137633848   -1.64429902283903   -1.28680344581679
|  6> C         3.10217837118474   -2.21117176639674   -2.55676027824433
|  7> C         4.01405640643394   -3.20757782499520   -2.87025164118022
|  8> C         4.94340984625074   -3.64950949084645   -1.94995571960240
|  9> C         4.97558542092251   -3.09021727314351   -0.67026723523622
| 10> C         4.05902212848912   -2.09257078582106   -0.35840761325561
| 11> H         4.07184638131760   -1.65186150179527    0.62597406410564
| 12> H         2.39137258186824   -1.89185811522384   -3.30168608743992
| 13> H         3.99282042293148   -3.64378258002584   -3.85784359739595
| 14> H         5.63154789622944   -4.42617552416514   -2.23728436226995
| 15> C         5.93598645828659   -3.49063391910016    0.39848488985162
| 16> O         2.28542893702524   -0.66059082512593   -0.85537993500032
| 17> C         1.32870035229714   -0.13974481108049   -1.75656014440308
| 18> H         1.80956447488891    0.30594690550021   -2.63228946459673
| 19> H         0.79897156121652    0.63155435029816   -1.20081229491657
| 20> H         0.62108344517879   -0.91067085946092   -2.07601442875263
| 21> C         6.92139143757565   -4.45351782228923    0.13913531106751
| 22> O         5.81852850321702   -2.92244322255634    1.52459175283494
| 23> C         7.86809012287017   -4.84429867099779    1.08783317238561
| 24> H         6.98400708661493   -4.89662987960429   -0.83790088708821
| 25> O         7.95931969536939   -4.36946735553455    2.25784121782401
| 26> Li        6.85407239342838   -3.18478987279504    2.89668654757085
| 27> C         8.87290621620347   -5.87552066892669    0.69343750555499
| 28> C         8.54636957356245   -6.95835811204751   -0.11932182346107
| 29> C        10.17001527155490   -5.77093860387293    1.19188337556986
| 30> C        11.13018635225259   -6.70617248375816    0.86081518873868
| 31> C        10.80891450762669   -7.76624582034667    0.01631831318879
| 32> C         9.50511834307947   -7.89582069193442   -0.45610825150746
| 33> C        11.85215927565325   -8.79724090190134   -0.26460846037589
| 34> O        12.17059799677313   -9.09182253072566   -1.52627618788246
| 35> O        12.42742362933457   -9.37647338061946    0.62947075762622
| 36> C        11.64041757005184   -8.37321109110801   -2.63663423684416
| 37> H        10.77137228035662   -8.89958045396402   -3.03453777408412
| 38> H        12.43136243735660   -8.36270421501007   -3.38525065771814
| 39> H        11.36665571193406   -7.35394085567343   -2.36344295381323
| 40> H         9.23252470186647   -8.74453961231292   -1.06499729914523
| 41> H         7.53399740536736   -7.08257144536809   -0.46992382799391
| 42> H        12.13396714140900   -6.62701496379786    1.24959633632316
| 43> H        10.40923603858433   -4.94474772323438    1.84360275718257
| 44> *
| 45> 
| 46>                          ****END OF INPUT****
================================================================================

                       *****************************
                       * Geometry Optimization Run *
                       *****************************

Geometry optimization settings:
Update method            Update   .... BFGS
Choice of coordinates    CoordSys .... Z-matrix Internals
Initial Hessian          InHess   .... Almoef's Model

Convergence Tolerances:
Energy Change            TolE     ....  5.0000e-06 Eh
Max. Gradient            TolMAXG  ....  3.0000e-04 Eh/bohr
RMS Gradient             TolRMSG  ....  1.0000e-04 Eh/bohr
Max. Displacement        TolMAXD  ....  4.0000e-03 bohr
RMS Displacement         TolRMSD  ....  2.0000e-03 bohr
Strict Convergence                ....  False
------------------------------------------------------------------------------
                        ORCA OPTIMIZATION COORDINATE SETUP
------------------------------------------------------------------------------

The optimization will be done in new redundant internal coordinates
Making redundant internal coordinates   ...  (new redundants) done
Evaluating the initial hessian          ...  (Almloef) done
Evaluating the coordinates              ...  done
Calculating the B-matrix                .... done
Calculating the G-matrix                .... done
Diagonalizing the G-matrix              .... done
Small eigenvalue found = 1.492e-03
Small eigenvalue found = 6.778e-03
Small eigenvalue found = 7.595e-03
Small eigenvalue found = 1.500e-02
Small eigenvalue found = 1.705e-02
Small eigenvalue found = 2.679e-02
Small eigenvalue found = 2.727e-02
The first mode is                       ....   79
The number of degrees of freedom        ....  111

    -----------------------------------------------------------------
                    Redundant Internal Coordinates


    -----------------------------------------------------------------
         Definition                    Initial Value    Approx d2E/dq
    -----------------------------------------------------------------
      1. B(C   1,C   0)                  1.3909         0.622775   
      2. B(C   2,C   1)                  1.3866         0.632680   
      3. B(C   3,C   2)                  1.3806         0.646844   
      4. B(C   4,C   3)                  1.3969         0.609065   
      5. B(C   5,C   4)                  1.3902         0.624348   
      6. B(C   5,C   0)                  1.3927         0.618533   
      7. B(H   6,C   5)                  1.0786         0.375489   
      8. B(H   7,C   1)                  1.0780         0.376306   
      9. B(H   8,C   2)                  1.0798         0.373789   
     10. B(H   9,C   3)                  1.0767         0.378119   
     11. B(C  10,C   4)                  1.4916         0.430138   
     12. B(O  11,C   0)                  1.3619         0.620525   
     13. B(C  12,O  11)                  1.4138         0.512811   
     14. B(H  13,C  12)                  1.0940         0.354885   
     15. B(H  14,C  12)                  1.0883         0.362372   
     16. B(H  15,C  12)                  1.0941         0.354690   
     17. B(C  16,C  10)                  1.4019         0.597987   
     18. B(O  17,C  10)                  1.2668         0.879936   
     19. B(C  18,C  16)                  1.3961         0.611047   
     20. B(H  19,C  16)                  1.0746         0.380992   
     21. B(O  20,C  18)                  1.2660         0.882553   
     22. B(Li 21,O  20)                  1.7416         0.746388   
     23. B(Li 21,O  17)                  1.7389         0.753778   
     24. B(C  22,C  18)                  1.4929         0.428190   
     25. B(C  23,C  22)                  1.3927         0.618526   
     26. B(C  24,C  22)                  1.3935         0.616786   
     27. B(C  25,C  24)                  1.3807         0.646628   
     28. B(C  26,C  25)                  1.3929         0.618195   
     29. B(C  27,C  26)                  1.3928         0.618428   
     30. B(C  27,C  23)                  1.3826         0.642119   
     31. B(C  28,C  26)                  1.4934         0.427344   
     32. B(O  29,C  28)                  1.3342         0.687009   
     33. B(O  30,C  28)                  1.2107         1.081241   
     34. B(C  31,O  29)                  1.4249         0.492229   
     35. B(H  32,C  31)                  1.0912         0.358568   
     36. B(H  33,C  31)                  1.0891         0.361297   
     37. B(H  34,C  31)                  1.0902         0.359863   
     38. B(H  35,C  27)                  1.0795         0.374225   
     39. B(H  36,C  23)                  1.0785         0.375584   
     40. B(H  37,C  25)                  1.0793         0.374470   
     41. B(H  38,C  24)                  1.0791         0.374749   
     42. A(C   1,C   0,C   5)          119.1658         0.434230   
     43. A(C   1,C   0,O  11)          125.0722         0.431638   
     44. A(C   5,C   0,O  11)          115.7620         0.431109   
     45. A(C   2,C   1,H   7)          119.3569         0.356776   
     46. A(C   0,C   1,H   7)          121.3256         0.355821   
     47. A(C   0,C   1,C   2)          119.3174         0.436001   
     48. A(C   1,C   2,H   8)          118.9549         0.356369   
     49. A(C   3,C   2,H   8)          119.5769         0.357712   
     50. A(C   1,C   2,C   3)          121.4682         0.438992   
     51. A(C   4,C   3,H   9)          121.2343         0.354769   
     52. A(C   2,C   3,H   9)          118.8978         0.358414   
     53. A(C   2,C   3,C   4)          119.8678         0.435992   
     54. A(C   3,C   4,C  10)          124.3132         0.405384   
     55. A(C   3,C   4,C   5)          118.5307         0.433223   
     56. A(C   5,C   4,C  10)          117.1560         0.407164   
     57. A(C   0,C   5,H   6)          119.0024         0.355278   
     58. A(C   4,C   5,H   6)          119.3477         0.355842   
     59. A(C   0,C   5,C   4)          121.6498         0.434427   
     60. A(C  16,C  10,O  17)          122.5260         0.456432   
     61. A(C   4,C  10,C  16)          120.2908         0.404072   
     62. A(C   4,C  10,O  17)          117.1827         0.430029   
     63. A(C   0,O  11,C  12)          118.6974         0.414200   
     64. A(H  13,C  12,H  15)          109.7318         0.289486   
     65. A(O  11,C  12,H  14)          105.3662         0.340088   
     66. A(O  11,C  12,H  15)          111.3581         0.338873   
     67. A(H  13,C  12,H  14)          109.5120         0.290461   
     68. A(H  14,C  12,H  15)          109.4916         0.290436   
     69. A(O  11,C  12,H  13)          111.2785         0.338904   
     70. A(C  18,C  16,H  19)          117.5744         0.355421   
     71. A(C  10,C  16,H  19)          119.4948         0.354121   
     72. A(C  10,C  16,C  18)          122.9007         0.430129   
     73. A(C  10,O  17,Li 21)          125.3479         0.515632   
     74. A(O  20,C  18,C  22)          117.0485         0.429908   
     75. A(C  16,C  18,C  22)          118.0512         0.405292   
     76. A(C  16,C  18,O  20)          124.8840         0.458481   
     77. A(C  18,O  20,Li 21)          123.2579         0.514968   
     78. A(O  17,Li 21,O  20)          101.0175         0.545646   
     79. A(C  23,C  22,C  24)          119.0335         0.433475   
     80. A(C  18,C  22,C  24)          118.6971         0.405961   
     81. A(C  18,C  22,C  23)          122.2373         0.406164   
     82. A(C  22,C  23,H  36)          119.9546         0.355292   
     83. A(C  27,C  23,H  36)          119.5801         0.357558   
     84. A(C  22,C  23,C  27)          120.4478         0.436627   
     85. A(C  22,C  24,C  25)          120.7124         0.436956   
     86. A(C  25,C  24,H  38)          120.6143         0.357848   
     87. A(C  22,C  24,H  38)          118.6733         0.354988   
     88. A(C  26,C  25,H  37)          119.2554         0.355081   
     89. A(C  24,C  25,H  37)          120.7109         0.357803   
     90. A(C  24,C  25,C  26)          120.0337         0.437136   
     91. A(C  27,C  26,C  28)          121.7291         0.406010   
     92. A(C  25,C  26,C  28)          118.5769         0.405983   
     93. A(C  25,C  26,C  27)          119.4963         0.433640   
     94. A(C  26,C  27,H  35)          120.0554         0.355064   
     95. A(C  23,C  27,H  35)          119.6949         0.357338   
     96. A(C  23,C  27,C  26)          120.2281         0.436615   
     97. A(O  29,C  28,O  30)          118.6400         0.482986   
     98. A(C  26,C  28,O  30)          121.5537         0.445781   
     99. A(C  26,C  28,O  29)          119.8057         0.410975   
    100. A(C  28,O  29,C  31)          122.4621         0.418708   
    101. A(H  33,C  31,H  34)          110.2185         0.290961   
    102. A(H  32,C  31,H  34)          110.0231         0.290615   
    103. A(O  29,C  31,H  34)          111.6957         0.337380   
    104. A(H  32,C  31,H  33)          109.4147         0.290796   
    105. A(O  29,C  31,H  33)          105.6809         0.337604   
    106. A(O  29,C  31,H  32)          109.7075         0.337177   
    107. D(C   2,C   1,C   0,C   5)     -0.0639         0.026853   
    108. D(H   7,C   1,C   0,O  11)     -0.1344         0.026853   
    109. D(H   7,C   1,C   0,C   5)    179.8964         0.026853   
    110. D(C   2,C   1,C   0,O  11)    179.9053         0.026853   
    111. D(H   8,C   2,C   1,C   0)    179.9847         0.027769   
    112. D(H   8,C   2,C   1,H   7)      0.0236         0.027769   
    113. D(C   3,C   2,C   1,C   0)     -0.0515         0.027769   
    114. D(C   3,C   2,C   1,H   7)    179.9875         0.027769   
    115. D(H   9,C   3,C   2,H   8)     -0.0893         0.029113   
    116. D(H   9,C   3,C   2,C   1)    179.9470         0.029113   
    117. D(C   4,C   3,C   2,H   8)   -179.9482         0.029113   
    118. D(C   4,C   3,C   2,C   1)      0.0882         0.029113   
    119. D(C  10,C   4,C   3,C   2)   -179.9331         0.025616   
    120. D(C   5,C   4,C   3,H   9)   -179.8637         0.025616   
    121. D(C   5,C   4,C   3,C   2)     -0.0082         0.025616   
    122. D(C  10,C   4,C   3,H   9)      0.2115         0.025616   
    123. D(H   6,C   5,C   4,C  10)     -0.0964         0.026997   
    124. D(C   0,C   5,C   4,C  10)    179.8215         0.026997   
    125. D(C   0,C   5,C   4,C   3)     -0.1088         0.026997   
    126. D(H   6,C   5,C   0,O  11)      0.0915         0.026466   
    127. D(H   6,C   5,C   0,C   1)   -179.9364         0.026466   
    128. D(H   6,C   5,C   4,C   3)    179.9733         0.026997   
    129. D(C   4,C   5,C   0,O  11)   -179.8266         0.026466   
    130. D(C   4,C   5,C   0,C   1)      0.1454         0.026466   
    131. D(O  17,C  10,C   4,C   5)      2.1725         0.012641   
    132. D(O  17,C  10,C   4,C   3)   -177.9017         0.012641   
    133. D(C  16,C  10,C   4,C   5)   -177.5514         0.012641   
    134. D(C  16,C  10,C   4,C   3)      2.3744         0.012641   
    135. D(C  12,O  11,C   0,C   5)    178.6912         0.028254   
    136. D(C  12,O  11,C   0,C   1)     -1.2789         0.028254   
    137. D(H  13,C  12,O  11,C   0)    -60.3962         0.020827   
    138. D(H  15,C  12,O  11,C   0)     62.3782         0.020827   
    139. D(H  14,C  12,O  11,C   0)   -179.0003         0.020827   
    140. D(H  19,C  16,C  10,C   4)      0.4041         0.024642   
    141. D(C  18,C  16,C  10,O  17)     -1.3515         0.024642   
    142. D(C  18,C  16,C  10,C   4)    178.3573         0.024642   
    143. D(H  19,C  16,C  10,O  17)   -179.3047         0.024642   
    144. D(Li 21,O  17,C  10,C  16)      1.9988         0.061134   
    145. D(Li 21,O  17,C  10,C   4)   -177.7185         0.061134   
    146. D(C  22,C  18,C  16,H  19)     -1.7416         0.025792   
    147. D(C  22,C  18,C  16,C  10)   -179.7318         0.025792   
    148. D(O  20,C  18,C  16,H  19)    176.7454         0.025792   
    149. D(O  20,C  18,C  16,C  10)     -1.2448         0.025792   
    150. D(Li 21,O  20,C  18,C  22)   -178.6895         0.061547   
    151. D(Li 21,O  20,C  18,C  16)      2.8098         0.061547   
    152. D(O  17,Li 21,O  20,C  18)     -1.8519         0.005738   
    153. D(O  20,Li 21,O  17,C  10)     -0.5229         0.005826   
    154. D(C  24,C  22,C  18,O  20)    -34.4574         0.012530   
    155. D(C  24,C  22,C  18,C  16)    144.1491         0.012530   
    156. D(C  23,C  22,C  18,O  20)    143.4606         0.012530   
    157. D(C  23,C  22,C  18,C  16)    -37.9330         0.012530   
    158. D(H  36,C  23,C  22,C  24)    176.7236         0.026465   
    159. D(H  36,C  23,C  22,C  18)     -1.1876         0.026465   
    160. D(C  27,C  23,C  22,C  24)     -1.7506         0.026465   
    161. D(C  27,C  23,C  22,C  18)   -179.6618         0.026465   
    162. D(H  38,C  24,C  22,C  23)   -178.2948         0.026308   
    163. D(H  38,C  24,C  22,C  18)     -0.3089         0.026308   
    164. D(C  25,C  24,C  22,C  23)      1.6097         0.026308   
    165. D(C  25,C  24,C  22,C  18)    179.5956         0.026308   
    166. D(H  37,C  25,C  24,H  38)      0.1125         0.029092   
    167. D(H  37,C  25,C  24,C  22)   -179.7901         0.029092   
    168. D(C  26,C  25,C  24,H  38)   -179.8662         0.029092   
    169. D(C  26,C  25,C  24,C  22)      0.2311         0.029092   
    170. D(C  28,C  26,C  25,H  37)      3.1053         0.026435   
    171. D(C  28,C  26,C  25,C  24)   -176.9157         0.026435   
    172. D(C  27,C  26,C  25,H  37)    178.0843         0.026435   
    173. D(C  27,C  26,C  25,C  24)     -1.9366         0.026435   
    174. D(H  35,C  27,C  26,C  25)   -176.5063         0.026457   
    175. D(C  23,C  27,C  26,C  28)    176.6114         0.026457   
    176. D(C  23,C  27,C  26,C  25)      1.7959         0.026457   
    177. D(H  35,C  27,C  23,H  36)     -0.1163         0.028660   
    178. D(H  35,C  27,C  23,C  22)    178.3637         0.028660   
    179. D(C  26,C  27,C  23,H  36)   -178.4246         0.028660   
    180. D(H  35,C  27,C  26,C  28)     -1.6908         0.026457   
    181. D(C  26,C  27,C  23,C  22)      0.0553         0.028660   
    182. D(O  30,C  28,C  26,C  27)   -121.2092         0.012483   
    183. D(O  30,C  28,C  26,C  25)     53.6524         0.012483   
    184. D(O  29,C  28,C  26,C  27)     59.0755         0.012483   
    185. D(O  29,C  28,C  26,C  25)   -126.0629         0.012483   
    186. D(C  31,O  29,C  28,O  30)   -173.8558         0.035220   
    187. D(C  31,O  29,C  28,C  26)      5.8678         0.035220   
    188. D(H  34,C  31,O  29,C  28)     26.4729         0.019137   
    189. D(H  33,C  31,O  29,C  28)    146.3420         0.019137   
    190. D(H  32,C  31,O  29,C  28)    -95.7995         0.019137   
    -----------------------------------------------------------------

Number of atoms                         .... 39
Number of degrees of freedom            .... 190

         *************************************************************
         *                GEOMETRY OPTIMIZATION CYCLE   1            *
         *************************************************************
---------------------------------
CARTESIAN COORDINATES (ANGSTROEM)
---------------------------------
  C      3.122611   -1.644299   -1.286803
  C      3.102178   -2.211172   -2.556760
  C      4.014056   -3.207578   -2.870252
  C      4.943410   -3.649509   -1.949956
  C      4.975585   -3.090217   -0.670267
  C      4.059022   -2.092571   -0.358408
  H      4.071846   -1.651862    0.625974
  H      2.391373   -1.891858   -3.301686
  H      3.992820   -3.643783   -3.857844
  H      5.631548   -4.426176   -2.237284
  C      5.935986   -3.490634    0.398485
  O      2.285429   -0.660591   -0.855380
  C      1.328700   -0.139745   -1.756560
  H      1.809564    0.305947   -2.632289
  H      0.798972    0.631554   -1.200812
  H      0.621083   -0.910671   -2.076014
  C      6.921391   -4.453518    0.139135
  O      5.818529   -2.922443    1.524592
  C      7.868090   -4.844299    1.087833
  H      6.984007   -4.896630   -0.837901
  O      7.959320   -4.369467    2.257841
  Li     6.854072   -3.184790    2.896687
  C      8.872906   -5.875521    0.693438
  C      8.546370   -6.958358   -0.119322
  C     10.170015   -5.770939    1.191883
  C     11.130186   -6.706172    0.860815
  C     10.808915   -7.766246    0.016318
  C      9.505118   -7.895821   -0.456108
  C     11.852159   -8.797241   -0.264608
  O     12.170598   -9.091823   -1.526276
  O     12.427424   -9.376473    0.629471
  C     11.640418   -8.373211   -2.636634
  H     10.771372   -8.899580   -3.034538
  H     12.431362   -8.362704   -3.385251
  H     11.366656   -7.353941   -2.363443
  H      9.232525   -8.744540   -1.064997
  H      7.533997   -7.082571   -0.469924
  H     12.133967   -6.627015    1.249596
  H     10.409236   -4.944748    1.843603

----------------------------
CARTESIAN COORDINATES (A.U.)
----------------------------
  NO LB      ZA    FRAG     MASS         X           Y           Z
   0 C     6.0000    0    12.011    5.900880   -3.107275   -2.431706
   1 C     6.0000    0    12.011    5.862268   -4.178509   -4.831577
   2 C     6.0000    0    12.011    7.585467   -6.061444   -5.423990
   3 C     6.0000    0    12.011    9.341691   -6.896573   -3.684882
   4 C     6.0000    0    12.011    9.402494   -5.839664   -1.266622
   5 C     6.0000    0    12.011    7.670440   -3.954386   -0.677292
   6 H     1.0000    0     1.008    7.694675   -3.121566    1.182920
   7 H     1.0000    0     1.008    4.519039   -3.575094   -6.239282
   8 H     1.0000    0     1.008    7.545337   -6.885751   -7.290268
   9 H     1.0000    0     1.008   10.642083   -8.364260   -4.227855
  10 C     6.0000    0    12.011   11.217389   -6.596342    0.753027
  11 O     8.0000    0    15.999    4.318835   -1.248336   -1.616434
  12 C     6.0000    0    12.011    2.510880   -0.264079   -3.319418
  13 H     1.0000    0     1.008    3.419581    0.578156   -4.974306
  14 H     1.0000    0     1.008    1.509837    1.193465   -2.269206
  15 H     1.0000    0     1.008    1.173678   -1.720919   -3.923099
  16 C     6.0000    0    12.011   13.079534   -8.415929    0.262928
  17 O     8.0000    0    15.999   10.995425   -5.522617    2.881061
  18 C     6.0000    0    12.011   14.868536   -9.154398    2.055707
  19 H     1.0000    0     1.008   13.197861   -9.253289   -1.583403
  20 O     8.0000    0    15.999   15.040934   -8.257097    4.266702
  21 Li    3.0000    0     6.941   12.952320   -6.018381    5.473944
  22 C     6.0000    0    12.011   16.767363  -11.103125    1.310407
  23 C     6.0000    0    12.011   16.150298  -13.149391   -0.225486
  24 C     6.0000    0    12.011   19.218544  -10.905493    2.252333
  25 C     6.0000    0    12.011   21.033004  -12.672829    1.626705
  26 C     6.0000    0    12.011   20.425888  -14.676078    0.030837
  27 C     6.0000    0    12.011   17.962071  -14.920939   -0.861920
  28 C     6.0000    0    12.011   22.397335  -16.624376   -0.500038
  29 O     8.0000    0    15.999   22.999097  -17.181055   -2.884244
  30 O     8.0000    0    15.999   23.484427  -17.718967    1.189527
  31 C     6.0000    0    12.011   21.997201  -15.823076   -4.982517
  32 H     1.0000    0     1.008   20.354944  -16.817770   -5.734445
  33 H     1.0000    0     1.008   23.491870  -15.803221   -6.397197
  34 H     1.0000    0     1.008   21.479866  -13.896934   -4.466260
  35 H     1.0000    0     1.008   17.446943  -16.524785   -2.012553
  36 H     1.0000    0     1.008   14.237192  -13.384120   -0.888027
  37 H     1.0000    0     1.008   22.929875  -12.523243    2.361395
  38 H     1.0000    0     1.008   19.670605   -9.344219    3.483904

--------------------------------
INTERNAL COORDINATES (ANGSTROEM)
--------------------------------
 C      0   0   0     0.000000000000     0.00000000     0.00000000
 C      1   0   0     1.390881940108     0.00000000     0.00000000
 C      2   1   0     1.386586967852   119.31740694     0.00000000
 C      3   2   1     1.380560030080   121.46820248   359.94852537
 C      4   3   2     1.396941541156   119.86783509     0.08818718
 C      5   4   3     1.390195384299   118.53073827     0.00000000
 H      6   5   4     1.078608557917   119.34773432   179.97334374
 H      2   1   3     1.078016947528   121.32564304   179.96027506
 H      3   2   1     1.079844168058   118.95492716   179.98465901
 H      4   3   2     1.076708805591   118.89775093   179.94703407
 C      5   4   3     1.491621516273   124.31323394   180.06694334
 O      1   2   3     1.361867284513   125.07218189   179.90533462
 C     12   1   2     1.413766573732   118.69736216   358.72106219
 H     13  12   1     1.093971321777   111.27847389   299.60379386
 H     13  12   1     1.088287949328   105.36620932   180.99973383
 H     13  12   1     1.094120513975   111.35810260    62.37815671
 C     11   5   4     1.401938154215   120.29078948     2.37436256
 O     11   5   4     1.266788737598   117.18265255   182.09831952
 C     17  11   5     1.396057199589   122.90071292   178.35725437
 H     17  11   5     1.074648197016   119.49478306     0.40407015
 O     19  17  11     1.265980426165   124.88404299   358.75519973
 Li    18  11   5     1.738913752659   125.34793934   182.28145969
 C     19  17  11     1.492857036842   118.05124337   180.26818942
 C     23  19  17     1.392745789480   122.23728650   322.06703579
 C     23  19  17     1.393512682088   118.69709838   144.14905790
 C     25  23  19     1.380650954668   120.71236307   179.59559371
 C     26  25  23     1.392891255593   120.03366153     0.23113671
 C     24  23  19     1.382555745659   120.44784882   180.33817897
 C     27  26  25     1.493395579313   118.57685159   183.08429745
 O     29  27  26     1.334161538113   119.80568964   233.93706173
 O     29  27  26     1.210709291730   121.55367110    53.65240259
 C     30  29  27     1.424917079314   122.46210300     5.86778673
 H     32  30  29     1.091160687820   109.70747203   264.20052476
 H     32  30  29     1.089096287370   105.68089868   146.34203635
 H     32  30  29     1.090179271921   111.69571705    26.47294228
 H     28  24  23     1.079526271737   119.69488743   178.36366738
 H     24  23  19     1.078539811362   119.95458443   358.81241529
 H     26  25  23     1.079348213675   120.71094510   180.20986887
 H     25  23  19     1.079146004486   118.67329665   359.69105685

---------------------------
INTERNAL COORDINATES (A.U.)
---------------------------
 C      0   0   0     0.000000000000     0.00000000     0.00000000
 C      1   0   0     2.628385951421     0.00000000     0.00000000
 C      2   1   0     2.620269630105   119.31740694     0.00000000
 C      3   2   1     2.608880368289   121.46820248   359.94852537
 C      4   3   2     2.639836937883   119.86783509     0.08818718
 C      5   4   3     2.627088548966   118.53073827     0.00000000
 H      6   5   4     2.038274780167   119.34773432   179.97334374
 H      2   1   3     2.037156798553   121.32564304   179.96027506
 H      3   2   1     2.040609744941   118.95492716   179.98465901
 H      4   3   2     2.034684768548   118.89775093   179.94703407
 C      5   4   3     2.818756161221   124.31323394   180.06694334
 O      1   2   3     2.573556198477   125.07218189   179.90533462
 C     12   1   2     2.671631641646   118.69736216   358.72106219
 H     13  12   1     2.067306196523   111.27847389   299.60379386
 H     13  12   1     2.056566179076   105.36620932   180.99973383
 H     13  12   1     2.067588128918   111.35810260    62.37815671
 C     11   5   4     2.649279168161   120.29078948     2.37436256
 O     11   5   4     2.393883783597   117.18265255   182.09831952
 C     17  11   5     2.638165774513   122.90071292   178.35725437
 H     17  11   5     2.030790782672   119.49478306     0.40407015
 O     19  17  11     2.392356296357   124.88404299   358.75519973
 Li    18  11   5     3.286070763035   125.34793934   182.28145969
 C     19  17  11     2.821090956729   118.05124337   180.26818942
 C     23  19  17     2.631908116289   122.23728650   322.06703579
 C     23  19  17     2.633357333293   118.69709838   144.14905790
 C     25  23  19     2.609052190859   120.71236307   179.59559371
 C     26  25  23     2.632183007405   120.03366153     0.23113671
 C     24  23  19     2.612651724175   120.44784882   180.33817897
 C     27  26  25     2.822108654509   118.57685159   183.08429745
 O     29  27  26     2.521199925445   119.80568964   233.93706173
 O     29  27  26     2.287908989164   121.55367110    53.65240259
 C     30  29  27     2.692703043451   122.46210300     5.86778673
 H     32  30  29     2.061994868080   109.70747203   264.20052476
 H     32  30  29     2.058093716600   105.68089868   146.34203635
 H     32  30  29     2.060140260809   111.69571705    26.47294228
 H     28  24  23     2.040009007957   119.69488743   178.36366738
 H     24  23  19     2.038144868006   119.95458443   358.81241529
 H     26  25  23     2.039672526982   120.71094510   180.20986887
 H     25  23  19     2.039290406994   118.67329665   359.69105685

---------------------
BASIS SET INFORMATION
---------------------
There are 4 groups of distinct atoms

 Group   1 Type C   : 11s6p2d1f contracted to 5s3p2d1f pattern {62111/411/11/1}
 Group   2 Type H   : 5s1p contracted to 3s1p pattern {311/1}
 Group   3 Type O   : 11s6p2d1f contracted to 5s3p2d1f pattern {62111/411/11/1}
 Group   4 Type Li  : 11s3p contracted to 5s3p pattern {62111/111}

Atom   0C    basis set group =>   1
Atom   1C    basis set group =>   1
Atom   2C    basis set group =>   1
Atom   3C    basis set group =>   1
Atom   4C    basis set group =>   1
Atom   5C    basis set group =>   1
Atom   6H    basis set group =>   2
Atom   7H    basis set group =>   2
Atom   8H    basis set group =>   2
Atom   9H    basis set group =>   2
Atom  10C    basis set group =>   1
Atom  11O    basis set group =>   3
Atom  12C    basis set group =>   1
Atom  13H    basis set group =>   2
Atom  14H    basis set group =>   2
Atom  15H    basis set group =>   2
Atom  16C    basis set group =>   1
Atom  17O    basis set group =>   3
Atom  18C    basis set group =>   1
Atom  19H    basis set group =>   2
Atom  20O    basis set group =>   3
Atom  21Li   basis set group =>   4
Atom  22C    basis set group =>   1
Atom  23C    basis set group =>   1
Atom  24C    basis set group =>   1
Atom  25C    basis set group =>   1
Atom  26C    basis set group =>   1
Atom  27C    basis set group =>   1
Atom  28C    basis set group =>   1
Atom  29O    basis set group =>   3
Atom  30O    basis set group =>   3
Atom  31C    basis set group =>   1
Atom  32H    basis set group =>   2
Atom  33H    basis set group =>   2
Atom  34H    basis set group =>   2
Atom  35H    basis set group =>   2
Atom  36H    basis set group =>   2
Atom  37H    basis set group =>   2
Atom  38H    basis set group =>   2
---------------------------------
AUXILIARY/J BASIS SET INFORMATION
---------------------------------
There are 4 groups of distinct atoms

 Group   1 Type C   : 12s5p4d2f1g contracted to 6s4p3d1f1g pattern {711111/2111/211/2/1}
 Group   2 Type H   : 5s2p1d contracted to 3s1p1d pattern {311/2/1}
 Group   3 Type O   : 12s5p4d2f1g contracted to 6s4p3d1f1g pattern {711111/2111/211/2/1}
 Group   4 Type Li  : 12s5p4d2f1g contracted to 6s4p3d1f1g pattern {711111/2111/211/2/1}

Atom   0C    basis set group =>   1
Atom   1C    basis set group =>   1
Atom   2C    basis set group =>   1
Atom   3C    basis set group =>   1
Atom   4C    basis set group =>   1
Atom   5C    basis set group =>   1
Atom   6H    basis set group =>   2
Atom   7H    basis set group =>   2
Atom   8H    basis set group =>   2
Atom   9H    basis set group =>   2
Atom  10C    basis set group =>   1
Atom  11O    basis set group =>   3
Atom  12C    basis set group =>   1
Atom  13H    basis set group =>   2
Atom  14H    basis set group =>   2
Atom  15H    basis set group =>   2
Atom  16C    basis set group =>   1
Atom  17O    basis set group =>   3
Atom  18C    basis set group =>   1
Atom  19H    basis set group =>   2
Atom  20O    basis set group =>   3
Atom  21Li   basis set group =>   4
Atom  22C    basis set group =>   1
Atom  23C    basis set group =>   1
Atom  24C    basis set group =>   1
Atom  25C    basis set group =>   1
Atom  26C    basis set group =>   1
Atom  27C    basis set group =>   1
Atom  28C    basis set group =>   1
Atom  29O    basis set group =>   3
Atom  30O    basis set group =>   3
Atom  31C    basis set group =>   1
Atom  32H    basis set group =>   2
Atom  33H    basis set group =>   2
Atom  34H    basis set group =>   2
Atom  35H    basis set group =>   2
Atom  36H    basis set group =>   2
Atom  37H    basis set group =>   2
Atom  38H    basis set group =>   2


           ************************************************************
           *        Program running with 4 parallel MPI-processes     *
           *              working on a common directory               *
           ************************************************************
------------------------------------------------------------------------------
                           ORCA GTO INTEGRAL CALCULATION
                           -- RI-GTO INTEGRALS CHOSEN --
------------------------------------------------------------------------------
------------------------------------------------------------------------------
                   ___                                                        
                  /   \      - P O W E R E D   B Y -                         
                 /     \                                                     
                 |  |  |   _    _      __       _____    __    __             
                 |  |  |  | |  | |    /  \     |  _  \  |  |  /  |          
                  \  \/   | |  | |   /    \    | | | |  |  | /  /          
                 / \  \   | |__| |  /  /\  \   | |_| |  |  |/  /          
                |  |  |   |  __  | /  /__\  \  |    /   |      \           
                |  |  |   | |  | | |   __   |  |    \   |  |\   \          
                \     /   | |  | | |  |  |  |  | |\  \  |  | \   \       
                 \___/    |_|  |_| |__|  |__|  |_| \__\ |__|  \__/        
                                                                              
                      - O R C A' S   B I G   F R I E N D -                    
                                      &                                       
                       - I N T E G R A L  F E E D E R -                       
                                                                              
 v1 FN, 2020, v2 2021                                                         
------------------------------------------------------------------------------


Reading SHARK input file Li-Aldol_freqopt.SHARKINP.tmp ... ok
----------------------
SHARK INTEGRAL PACKAGE
----------------------

Number of atoms                             ...     39
Number of basis functions                   ...    817
Number of shells                            ...    321
Maximum angular momentum                    ...      3
Integral batch strategy                     ... SHARK/LIBINT Hybrid
RI-J (if used) integral strategy            ... SPLIT-RIJ (Revised 2003 algorithm where possible)
Printlevel                                  ...      1
Contraction scheme used                     ... SEGMENTED contraction
Coulomb Range Separation                    ... NOT USED
Exchange Range Separation                   ... NOT USED
Finite Nucleus Model                        ... NOT USED
Auxiliary Coulomb fitting basis             ... AVAILABLE
   # of basis functions in Aux-J            ...   1341
   # of shells in Aux-J                     ...    435
   Maximum angular momentum in Aux-J        ...      4
Auxiliary J/K fitting basis                 ... NOT available
Auxiliary Correlation fitting basis         ... NOT available
Auxiliary 'external' fitting basis          ... NOT available
Integral threshold                          ...     2.500000e-11
Primitive cut-off                           ...     2.500000e-12
Primitive pair pre-selection threshold      ...     2.500000e-12

Calculating pre-screening integrals         ... done (  0.3 sec) Dimension = 321
Organizing shell pair data                  ... done (  0.6 sec)
Shell pair information
Total number of shell pairs                 ...     51681
Shell pairs after pre-screening             ...     30513
Total number of primitive shell pairs       ...    159897
Primitive shell pairs kept                  ...     62935
          la=0 lb=0:   7753 shell pairs
          la=1 lb=0:   8921 shell pairs
          la=1 lb=1:   2591 shell pairs
          la=2 lb=0:   4279 shell pairs
          la=2 lb=1:   2479 shell pairs
          la=2 lb=2:    601 shell pairs
          la=3 lb=0:   2024 shell pairs
          la=3 lb=1:   1175 shell pairs
          la=3 lb=2:    548 shell pairs
          la=3 lb=3:    142 shell pairs

Calculating one electron integrals          ... done (  0.2 sec)
Calculating RI/J V-Matrix + Cholesky decomp.... done (  0.3 sec)
Calculating Nuclear repulsion               ... done (  0.0 sec) ENN=   1753.361724939383 Eh

SHARK setup successfully completed in   2.4 seconds

Maximum memory used throughout the entire GTOINT-calculation: 51.8 MB


           ************************************************************
           *        Program running with 4 parallel MPI-processes     *
           *              working on a common directory               *
           ************************************************************
-------------------------------------------------------------------------------
                                 ORCA SCF
-------------------------------------------------------------------------------

------------
SCF SETTINGS
------------
Hamiltonian:
 Density Functional     Method          .... DFT(GTOs)
 Exchange Functional    Exchange        .... TPSS
 Correlation Functional Correlation     .... TPSS
 LDA part of GGA corr.  LDAOpt          .... PW91-LDA
 Gradients option       PostSCFGGA      .... off
   Density functional embedding theory  .... OFF
   NL short-range parameter             ....  5.000000
 RI-approximation to the Coulomb term is turned on
   Number of AuxJ basis functions       .... 1341


General Settings:
 Integral files         IntName         .... Li-Aldol_freqopt
 Hartree-Fock type      HFTyp           .... RHF
 Total Charge           Charge          ....    0
 Multiplicity           Mult            ....    1
 Number of Electrons    NEL             ....  166
 Basis Dimension        Dim             ....  817
 Nuclear Repulsion      ENuc            ....   1753.3617249394 Eh

Convergence Acceleration:
 DIIS                   CNVDIIS         .... on
   Start iteration      DIISMaxIt       ....    12
   Startup error        DIISStart       ....  0.200000
   # of expansion vecs  DIISMaxEq       ....     5
   Bias factor          DIISBfac        ....   1.050
   Max. coefficient     DIISMaxC        ....  10.000
 Trust-Rad. Augm. Hess. CNVTRAH         .... auto
   Auto Start mean grad. ratio tolernc. ....  1.125000
   Auto Start start iteration           ....    20
   Auto Start num. interpolation iter.  ....    10
   Max. Number of Micro iterations      ....    16
   Max. Number of Macro iterations      .... Maxiter - #DIIS iter
   Number of Davidson start vectors     ....     2
   Converg. threshold I  (grad. norm)   ....   1.000e-05
   Converg. threshold II (energy diff.) ....   1.000e-08
   Grad. Scal. Fac. for Micro threshold ....   0.100
   Minimum threshold for Micro iter.    ....   0.010
   NR start threshold (gradient norm)   ....   0.001
   Initial trust radius                 ....   0.400
   Minimum AH scaling param. (alpha)    ....   1.000
   Maximum AH scaling param. (alpha)    .... 1000.000
   Orbital update algorithm             .... Taylor
   White noise on init. David. guess    .... on
   Maximum white noise                  ....   0.010
   Quad. conv. algorithm                .... NR
 SOSCF                  CNVSOSCF        .... on
   Start iteration      SOSCFMaxIt      ....   150
   Startup grad/error   SOSCFStart      ....  0.003300
 Level Shifting         CNVShift        .... on
   Level shift para.    LevelShift      ....    0.2500
   Turn off err/grad.   ShiftErr        ....    0.0010
 Zerner damping         CNVZerner       .... off
 Static damping         CNVDamp         .... on
   Fraction old density DampFac         ....    0.7000
   Max. Damping (<1)    DampMax         ....    0.9800
   Min. Damping (>=0)   DampMin         ....    0.0000
   Turn off err/grad.   DampErr         ....    0.1000
 Fernandez-Rico         CNVRico         .... off

SCF Procedure:
 Maximum # iterations   MaxIter         ....   125
 SCF integral mode      SCFMode         .... Direct
   Integral package                     .... SHARK and LIBINT hybrid scheme
 Reset frequency        DirectResetFreq ....    20
 Integral Threshold     Thresh          ....  2.500e-11 Eh
 Primitive CutOff       TCut            ....  2.500e-12 Eh

Convergence Tolerance:
 Convergence Check Mode ConvCheckMode   .... Total+1el-Energy
 Convergence forced     ConvForced      .... 0
 Energy Change          TolE            ....  1.000e-08 Eh
 1-El. energy change                    ....  1.000e-05 Eh
 Orbital Gradient       TolG            ....  1.000e-05
 Orbital Rotation angle TolX            ....  1.000e-05
 DIIS Error             TolErr          ....  5.000e-07


Diagonalization of the overlap matrix:
Smallest eigenvalue                        ... 6.580e-06
Time for diagonalization                   ...    0.528 sec
Threshold for overlap eigenvalues          ... 1.000e-08
Number of eigenvalues below threshold      ... 0
Time for construction of square roots      ...    0.329 sec
Total time needed                          ...    0.863 sec

Time for model grid setup =    1.410 sec

------------------------------
INITIAL GUESS: MODEL POTENTIAL
------------------------------
Loading Hartree-Fock densities                     ... done
Calculating cut-offs                               ... done
Initializing the effective Hamiltonian             ... done
Setting up the integral package (SHARK)            ... done
Starting the Coulomb interaction                   ... done (   2.0 sec)
Reading the grid                                   ... done
Mapping shells                                     ... done
Starting the XC term evaluation                    ... done (   1.5 sec)
  promolecular density results
     # of electrons  =    165.993591827
     EX              =   -139.092731953
     EC              =     -5.549964894
     EX+EC           =   -144.642696846
Transforming the Hamiltonian                       ... done (   0.3 sec)
Diagonalizing the Hamiltonian                      ... done (   0.6 sec)
Back transforming the eigenvectors                 ... done (   0.1 sec)
Now organizing SCF variables                       ... done
                      ------------------
                      INITIAL GUESS DONE (   6.0 sec)
                      ------------------
-------------------
DFT GRID GENERATION
-------------------

General Integration Accuracy     IntAcc      ... 4.388
Radial Grid Type                 RadialGrid  ... OptM3 with GC (2021)
Angular Grid (max. ang.)         AngularGrid ... 4 (Lebedev-302)
Angular grid pruning method      GridPruning ... 4 (adaptive)
Weight generation scheme         WeightScheme... Becke
Basis function cutoff            BFCut       ... 1.0000e-11
Integration weight cutoff        WCut        ... 1.0000e-14
Angular grids for H and He will be reduced by one unit
Partially contracted basis set               ... off
Rotationally invariant grid construction     ... off

Total number of grid points                  ...   191593
Total number of batches                      ...     3013
Average number of points per batch           ...       63
Average number of grid points per atom       ...     4913
Time for grid setup =    4.666 sec


--------------------
CPCM SOLVATION MODEL
--------------------
CPCM parameters:
  Epsilon                                         ...       7.2500
  Refrac                                          ...       1.4070
  Rsolv                                           ...       1.3000
  Surface type                                    ... GAUSSIAN VDW
  Epsilon function type                           ...         CPCM
Radii:
 Radius for C  used is    3.8550 Bohr (=   2.0400 Ang.)
 Radius for H  used is    2.4944 Bohr (=   1.3200 Ang.)
 Radius for O  used is    3.4469 Bohr (=   1.8240 Ang.)
 Radius for Li used is    4.1272 Bohr (=   2.1840 Ang.)
Calculating surface                               ...        done! (  0.0s)
GEPOL surface points                              ...         2067
GEPOL Volume                                      ...    2603.2303
GEPOL Surface-area                                ...    1324.3270
Calculating surface distance matrix               ...        done! (  0.1s)
Performing Cholesky decomposition & store         ...        done! (  0.5s)
Overall time for CPCM initialization              ...                 0.6s
--------------
SCF ITERATIONS
--------------
ITER       Energy         Delta-E        Max-DP      RMS-DP      [F,P]     Damp
               ***  Starting incremental Fock matrix formation  ***
  0  -1078.6906090921   0.000000000000 0.41143785  0.00170747  0.2932177 0.7000
  1  -1078.9748716012  -0.284262509038 0.29117514  0.00134553  0.0955108 0.7000
                               ***Turning on DIIS***
  2  -1079.0683570568  -0.093485455649 0.22678986  0.00171282  0.0342080 0.0000
  3  -1079.2384079950  -0.170050938184 0.35387758  0.00129634  0.0461215 0.0000
  4  -1079.2675442297  -0.029136234690 0.06068846  0.00033535  0.0254360 0.0000
  5  -1079.2720927595  -0.004548529760 0.01805859  0.00013509  0.0038898 0.0000
                      *** Initiating the SOSCF procedure ***
                           *** Shutting down DIIS ***
                      *** Re-Reading the Fockian *** 
                      *** Removing any level shift *** 
ITER      Energy       Delta-E        Grad      Rot      Max-DP    RMS-DP
  6  -1079.27222214  -0.0001293821  0.000322  0.000322  0.004522  0.000040
               *** Restarting incremental Fock matrix formation ***
  7  -1079.27224342  -0.0000212777  0.000172  0.000702  0.003301  0.000029
  8  -1079.27223688   0.0000065356  0.000522  0.000670  0.000656  0.000007
  9  -1079.27224685  -0.0000099675  0.000084  0.000273  0.000618  0.000005
 10  -1079.27224606   0.0000007877  0.000136  0.000147  0.000353  0.000003
 11  -1079.27224711  -0.0000010442  0.000011  0.000073  0.000288  0.000002
 12  -1079.27224706   0.0000000466  0.000020  0.000053  0.000194  0.000001
 13  -1079.27224712  -0.0000000599  0.000003  0.000010  0.000465  0.000003
 14  -1079.27224712   0.0000000046  0.000006  0.000010  0.000096  0.000001
                  ***Gradient check signals convergence***
              ***Rediagonalizing the Fockian in SOSCF/NRSCF***

               *****************************************************
               *                     SUCCESS                       *
               *           SCF CONVERGED AFTER  15 CYCLES          *
               *****************************************************


----------------
TOTAL SCF ENERGY
----------------

Total Energy       :        -1079.27224715 Eh          -29368.49091 eV

Components:
Nuclear Repulsion  :         1753.36172494 Eh           47711.39814 eV
Electronic Energy  :        -2832.63397208 Eh          -77079.88905 eV
One Electron Energy:        -4954.05621833 Eh         -134806.72314 eV
Two Electron Energy:         2121.42224625 Eh           57726.83410 eV
CPCM Dielectric    :           -0.02670983 Eh              -0.72681 eV

Virial components:
Potential Energy   :        -2154.60550384 Eh          -58629.79644 eV
Kinetic Energy     :         1075.33325669 Eh           29261.30553 eV
Virial Ratio       :            2.00366304


DFT components:
N(Alpha)           :       82.999914339637 electrons
N(Beta)            :       82.999914339637 electrons
N(Total)           :      165.999828679274 electrons
E(X)               :     -143.220076209900 Eh       
E(C)               :       -5.576626366111 Eh       
E(XC)              :     -148.796702576011 Eh       
DFET-embed. en.    :        0.000000000000 Eh       
CPCM Solvation Model Properties:
Surface-charge          :           -0.03110110
Charge-correction       :           -0.00006904 Eh              -0.00188 eV
Free-energy (cav+disp)  :  This term is not implemented in the current solvation scheme

---------------
SCF CONVERGENCE
---------------

  Last Energy change         ...   -2.8927e-08  Tolerance :   1.0000e-08
  Last MAX-Density change    ...    1.9841e-04  Tolerance :   1.0000e-07
  Last RMS-Density change    ...    1.2834e-06  Tolerance :   5.0000e-09
  Last Orbital Gradient      ...    1.2076e-06  Tolerance :   1.0000e-05
  Last Orbital Rotation      ...    5.5095e-06  Tolerance :   1.0000e-05

             **** THE GBW FILE WAS UPDATED (Li-Aldol_freqopt.gbw) ****
             **** DENSITY Li-Aldol_freqopt.scfp WAS UPDATED ****
             **** ENERGY FILE WAS UPDATED (Li-Aldol_freqopt.en.tmp) ****
             **** THE GBW FILE WAS UPDATED (Li-Aldol_freqopt.gbw) ****
             **** DENSITY Li-Aldol_freqopt.scfp WAS UPDATED ****
----------------
ORBITAL ENERGIES
----------------

  NO   OCC          E(Eh)            E(eV) 
   0   2.0000     -18.934258      -515.2274 
   1   2.0000     -18.915582      -514.7192 
   2   2.0000     -18.873009      -513.5607 
   3   2.0000     -18.857400      -513.1359 
   4   2.0000     -18.855120      -513.0739 
   5   2.0000     -10.115154      -275.2473 
   6   2.0000     -10.054435      -273.5951 
   7   2.0000     -10.053565      -273.5714 
   8   2.0000     -10.046130      -273.3691 
   9   2.0000     -10.040830      -273.2249 
  10   2.0000     -10.033396      -273.0226 
  11   2.0000     -10.011036      -272.4141 
  12   2.0000     -10.001110      -272.1441 
  13   2.0000     -10.000476      -272.1268 
  14   2.0000      -9.999373      -272.0968 
  15   2.0000      -9.997467      -272.0449 
  16   2.0000      -9.995195      -271.9831 
  17   2.0000      -9.994663      -271.9686 
  18   2.0000      -9.989273      -271.8219 
  19   2.0000      -9.988507      -271.8011 
  20   2.0000      -9.984464      -271.6911 
  21   2.0000      -9.982817      -271.6463 
  22   2.0000      -9.963253      -271.1139 
  23   2.0000      -1.856678       -50.5228 
  24   2.0000      -1.042536       -28.3689 
  25   2.0000      -1.001568       -27.2541 
  26   2.0000      -0.958921       -26.0936 
  27   2.0000      -0.958756       -26.0891 
  28   2.0000      -0.943115       -25.6635 
  29   2.0000      -0.814432       -22.1618 
  30   2.0000      -0.800809       -21.7911 
  31   2.0000      -0.733202       -19.9514 
  32   2.0000      -0.714953       -19.4549 
  33   2.0000      -0.705649       -19.2017 
  34   2.0000      -0.704722       -19.1765 
  35   2.0000      -0.685223       -18.6459 
  36   2.0000      -0.677964       -18.4483 
  37   2.0000      -0.643336       -17.5061 
  38   2.0000      -0.616068       -16.7641 
  39   2.0000      -0.583453       -15.8766 
  40   2.0000      -0.570586       -15.5264 
  41   2.0000      -0.554522       -15.0893 
  42   2.0000      -0.535277       -14.5656 
  43   2.0000      -0.525151       -14.2901 
  44   2.0000      -0.503369       -13.6974 
  45   2.0000      -0.494524       -13.4567 
  46   2.0000      -0.467997       -12.7348 
  47   2.0000      -0.453068       -12.3286 
  48   2.0000      -0.448512       -12.2046 
  49   2.0000      -0.444105       -12.0847 
  50   2.0000      -0.438325       -11.9274 
  51   2.0000      -0.434382       -11.8201 
  52   2.0000      -0.425271       -11.5722 
  53   2.0000      -0.419828       -11.4241 
  54   2.0000      -0.413881       -11.2623 
  55   2.0000      -0.405987       -11.0475 
  56   2.0000      -0.403627       -10.9833 
  57   2.0000      -0.391283       -10.6474 
  58   2.0000      -0.388352       -10.5676 
  59   2.0000      -0.382008       -10.3950 
  60   2.0000      -0.376271       -10.2389 
  61   2.0000      -0.370190       -10.0734 
  62   2.0000      -0.368556       -10.0289 
  63   2.0000      -0.362456        -9.8629 
  64   2.0000      -0.356160        -9.6916 
  65   2.0000      -0.344088        -9.3631 
  66   2.0000      -0.340268        -9.2592 
  67   2.0000      -0.326705        -8.8901 
  68   2.0000      -0.325049        -8.8450 
  69   2.0000      -0.323791        -8.8108 
  70   2.0000      -0.314105        -8.5472 
  71   2.0000      -0.307463        -8.3665 
  72   2.0000      -0.290345        -7.9007 
  73   2.0000      -0.288249        -7.8437 
  74   2.0000      -0.268499        -7.3062 
  75   2.0000      -0.258111        -7.0236 
  76   2.0000      -0.246068        -6.6958 
  77   2.0000      -0.242132        -6.5887 
  78   2.0000      -0.236216        -6.4278 
  79   2.0000      -0.231291        -6.2937 
  80   2.0000      -0.208909        -5.6847 
  81   2.0000      -0.206298        -5.6137 
  82   2.0000      -0.194626        -5.2960 
  83   0.0000      -0.093712        -2.5500 
  84   0.0000      -0.062251        -1.6939 
  85   0.0000      -0.045506        -1.2383 
  86   0.0000      -0.028964        -0.7882 
  87   0.0000      -0.023044        -0.6271 
  88   0.0000      -0.009315        -0.2535 
  89   0.0000       0.004527         0.1232 
  90   0.0000       0.035590         0.9684 
  91   0.0000       0.041935         1.1411 
  92   0.0000       0.043643         1.1876 
  93   0.0000       0.052825         1.4374 
  94   0.0000       0.057303         1.5593 
  95   0.0000       0.059018         1.6059 
  96   0.0000       0.062731         1.7070 
  97   0.0000       0.068740         1.8705 
  98   0.0000       0.072461         1.9718 
  99   0.0000       0.078556         2.1376 
 100   0.0000       0.080243         2.1835 
 101   0.0000       0.087214         2.3732 
 102   0.0000       0.096887         2.6364 
 103   0.0000       0.099220         2.6999 
 104   0.0000       0.105029         2.8580 
 105   0.0000       0.111924         3.0456 
 106   0.0000       0.113137         3.0786 
 107   0.0000       0.115978         3.1559 
 108   0.0000       0.121697         3.3116 
 109   0.0000       0.126118         3.4318 
 110   0.0000       0.132154         3.5961 
 111   0.0000       0.134531         3.6608 
 112   0.0000       0.137754         3.7485 
 113   0.0000       0.145174         3.9504 
 114   0.0000       0.148791         4.0488 
 115   0.0000       0.157233         4.2785 
 116   0.0000       0.163180         4.4403 
 117   0.0000       0.172431         4.6921 
 118   0.0000       0.177385         4.8269 
 119   0.0000       0.187731         5.1084 
 120   0.0000       0.190905         5.1948 
 121   0.0000       0.191853         5.2206 
 122   0.0000       0.194952         5.3049 
 123   0.0000       0.196599         5.3497 
 124   0.0000       0.198573         5.4034 
 125   0.0000       0.205561         5.5936 
 126   0.0000       0.207728         5.6526 
 127   0.0000       0.208893         5.6843 
 128   0.0000       0.210386         5.7249 
 129   0.0000       0.216452         5.8900 
 130   0.0000       0.223893         6.0925 
 131   0.0000       0.228866         6.2278 
 132   0.0000       0.231173         6.2905 
 133   0.0000       0.233394         6.3510 
 134   0.0000       0.236736         6.4419 
 135   0.0000       0.243510         6.6262 
 136   0.0000       0.247388         6.7318 
 137   0.0000       0.251784         6.8514 
 138   0.0000       0.256101         6.9689 
 139   0.0000       0.261910         7.1269 
 140   0.0000       0.264575         7.1994 
 141   0.0000       0.267535         7.2800 
 142   0.0000       0.271598         7.3906 
 143   0.0000       0.279714         7.6114 
 144   0.0000       0.284497         7.7415 
 145   0.0000       0.289562         7.8794 
 146   0.0000       0.293228         7.9791 
 147   0.0000       0.294919         8.0251 
 148   0.0000       0.301911         8.2154 
 149   0.0000       0.307915         8.3788 
 150   0.0000       0.315681         8.5901 
 151   0.0000       0.319580         8.6962 
 152   0.0000       0.325182         8.8487 
 153   0.0000       0.326753         8.8914 
 154   0.0000       0.336697         9.1620 
 155   0.0000       0.337905         9.1949 
 156   0.0000       0.341575         9.2947 
 157   0.0000       0.347533         9.4569 
 158   0.0000       0.350217         9.5299 
 159   0.0000       0.354119         9.6361 
 160   0.0000       0.355919         9.6850 
 161   0.0000       0.358211         9.7474 
 162   0.0000       0.370434        10.0800 
 163   0.0000       0.372466        10.1353 
 164   0.0000       0.375496        10.2178 
 165   0.0000       0.380677        10.3587 
 166   0.0000       0.386243        10.5102 
 167   0.0000       0.388651        10.5757 
 168   0.0000       0.391991        10.6666 
 169   0.0000       0.396643        10.7932 
 170   0.0000       0.399600        10.8737 
 171   0.0000       0.402084        10.9413 
 172   0.0000       0.407126        11.0785 
 173   0.0000       0.413569        11.2538 
 174   0.0000       0.416396        11.3307 
 175   0.0000       0.421050        11.4574 
 176   0.0000       0.421629        11.4731 
 177   0.0000       0.426962        11.6182 
 178   0.0000       0.430218        11.7068 
 179   0.0000       0.435011        11.8373 
 180   0.0000       0.440087        11.9754 
 181   0.0000       0.446241        12.1428 
 182   0.0000       0.449515        12.2319 
 183   0.0000       0.453909        12.3515 
 184   0.0000       0.458020        12.4634 
 185   0.0000       0.460005        12.5174 
 186   0.0000       0.463678        12.6173 
 187   0.0000       0.466581        12.6963 
 188   0.0000       0.470405        12.8004 
 189   0.0000       0.474664        12.9163 
 190   0.0000       0.479271        13.0416 
 191   0.0000       0.485309        13.2059 
 192   0.0000       0.489962        13.3325 
 193   0.0000       0.494059        13.4440 
 194   0.0000       0.495747        13.4900 
 195   0.0000       0.502623        13.6771 
 196   0.0000       0.508248        13.8301 
 197   0.0000       0.511704        13.9242 
 198   0.0000       0.524233        14.2651 
 199   0.0000       0.528407        14.3787 
 200   0.0000       0.530113        14.4251 
 201   0.0000       0.541083        14.7236 
 202   0.0000       0.548217        14.9178 
 203   0.0000       0.559165        15.2156 
 204   0.0000       0.563085        15.3223 
 205   0.0000       0.564887        15.3714 
 206   0.0000       0.569764        15.5041 
 207   0.0000       0.579505        15.7691 
 208   0.0000       0.582293        15.8450 
 209   0.0000       0.588502        16.0140 
 210   0.0000       0.592961        16.1353 
 211   0.0000       0.601247        16.3608 
 212   0.0000       0.607621        16.5342 
 213   0.0000       0.616076        16.7643 
 214   0.0000       0.622908        16.9502 
 215   0.0000       0.627005        17.0617 
 216   0.0000       0.629768        17.1369 
 217   0.0000       0.632503        17.2113 
 218   0.0000       0.638457        17.3733 
 219   0.0000       0.642052        17.4711 
 220   0.0000       0.649211        17.6659 
 221   0.0000       0.650129        17.6909 
 222   0.0000       0.652692        17.7607 
 223   0.0000       0.661365        17.9966 
 224   0.0000       0.665847        18.1186 
 225   0.0000       0.672496        18.2996 
 226   0.0000       0.678976        18.4759 
 227   0.0000       0.681317        18.5396 
 228   0.0000       0.687639        18.7116 
 229   0.0000       0.691075        18.8051 
 230   0.0000       0.699357        19.0305 
 231   0.0000       0.707742        19.2586 
 232   0.0000       0.710871        19.3438 
 233   0.0000       0.718832        19.5604 
 234   0.0000       0.721586        19.6354 
 235   0.0000       0.726974        19.7820 
 236   0.0000       0.730280        19.8719 
 237   0.0000       0.738166        20.0865 
 238   0.0000       0.738487        20.0952 
 239   0.0000       0.742672        20.2091 
 240   0.0000       0.749731        20.4012 
 241   0.0000       0.750926        20.4337 
 242   0.0000       0.760752        20.7011 
 243   0.0000       0.763073        20.7643 
 244   0.0000       0.766455        20.8563 
 245   0.0000       0.779092        21.2002 
 246   0.0000       0.783824        21.3289 
 247   0.0000       0.790963        21.5232 
 248   0.0000       0.791248        21.5309 
 249   0.0000       0.808839        22.0096 
 250   0.0000       0.813838        22.1457 
 251   0.0000       0.817432        22.2435 
 252   0.0000       0.821500        22.3541 
 253   0.0000       0.833431        22.6788 
 254   0.0000       0.838096        22.8058 
 255   0.0000       0.841601        22.9011 
 256   0.0000       0.848086        23.0776 
 257   0.0000       0.853795        23.2329 
 258   0.0000       0.866247        23.5718 
 259   0.0000       0.875509        23.8238 
 260   0.0000       0.886312        24.1178 
 261   0.0000       0.888289        24.1716 
 262   0.0000       0.890950        24.2440 
 263   0.0000       0.904079        24.6012 
 264   0.0000       0.910804        24.7842 
 265   0.0000       0.916863        24.9491 
 266   0.0000       0.924624        25.1603 
 267   0.0000       0.929882        25.3034 
 268   0.0000       0.934969        25.4418 
 269   0.0000       0.949195        25.8289 
 270   0.0000       0.956725        26.0338 
 271   0.0000       0.965181        26.2639 
 272   0.0000       0.965719        26.2786 
 273   0.0000       0.972603        26.4659 
 274   0.0000       0.977385        26.5960 
 275   0.0000       0.984953        26.8019 
 276   0.0000       0.988714        26.9043 
 277   0.0000       0.993216        27.0268 
 278   0.0000       1.009373        27.4664 
 279   0.0000       1.016242        27.6534 
 280   0.0000       1.026391        27.9295 
 281   0.0000       1.031712        28.0743 
 282   0.0000       1.041138        28.3308 
 283   0.0000       1.044715        28.4281 
 284   0.0000       1.050517        28.5860 
 285   0.0000       1.060386        28.8546 
 286   0.0000       1.064342        28.9622 
 287   0.0000       1.080483        29.4014 
 288   0.0000       1.082046        29.4440 
 289   0.0000       1.091522        29.7018 
 290   0.0000       1.107495        30.1365 
 291   0.0000       1.121034        30.5049 
 292   0.0000       1.123541        30.5731 
 293   0.0000       1.133728        30.8503 
 294   0.0000       1.142105        31.0783 
 295   0.0000       1.152950        31.3734 
 296   0.0000       1.166505        31.7422 
 297   0.0000       1.174053        31.9476 
 298   0.0000       1.177930        32.0531 
 299   0.0000       1.190845        32.4045 
 300   0.0000       1.205774        32.8108 
 301   0.0000       1.211203        32.9585 
 302   0.0000       1.214465        33.0473 
 303   0.0000       1.222029        33.2531 
 304   0.0000       1.224622        33.3237 
 305   0.0000       1.227094        33.3909 
 306   0.0000       1.245215        33.8840 
 307   0.0000       1.247712        33.9520 
 308   0.0000       1.257844        34.2277 
 309   0.0000       1.262375        34.3510 
 310   0.0000       1.271696        34.6046 
 311   0.0000       1.279395        34.8141 
 312   0.0000       1.288052        35.0497 
 313   0.0000       1.295647        35.2563 
 314   0.0000       1.303788        35.4779 
 315   0.0000       1.311504        35.6878 
 316   0.0000       1.316741        35.8303 
 317   0.0000       1.332020        36.2461 
 318   0.0000       1.336613        36.3711 
 319   0.0000       1.353125        36.8204 
 320   0.0000       1.356425        36.9102 
 321   0.0000       1.364957        37.1424 
 322   0.0000       1.373640        37.3787 
 323   0.0000       1.383312        37.6418 
 324   0.0000       1.405912        38.2568 
 325   0.0000       1.414156        38.4812 
 326   0.0000       1.415030        38.5049 
 327   0.0000       1.424437        38.7609 
 328   0.0000       1.436701        39.0946 
 329   0.0000       1.446217        39.3536 
 330   0.0000       1.448095        39.4047 
 331   0.0000       1.452842        39.5338 
 332   0.0000       1.456535        39.6343 
 333   0.0000       1.463301        39.8184 
 334   0.0000       1.464997        39.8646 
 335   0.0000       1.478697        40.2374 
 336   0.0000       1.483157        40.3588 
 337   0.0000       1.484398        40.3925 
 338   0.0000       1.493572        40.6422 
 339   0.0000       1.496382        40.7186 
 340   0.0000       1.501348        40.8538 
 341   0.0000       1.507713        41.0270 
 342   0.0000       1.512281        41.1512 
 343   0.0000       1.518418        41.3183 
 344   0.0000       1.522976        41.4423 
 345   0.0000       1.530226        41.6396 
 346   0.0000       1.540431        41.9172 
 347   0.0000       1.548639        42.1406 
 348   0.0000       1.556298        42.3490 
 349   0.0000       1.567750        42.6607 
 350   0.0000       1.571525        42.7634 
 351   0.0000       1.578380        42.9499 
 352   0.0000       1.582667        43.0665 
 353   0.0000       1.592343        43.3299 
 354   0.0000       1.600177        43.5430 
 355   0.0000       1.606739        43.7216 
 356   0.0000       1.610219        43.8163 
 357   0.0000       1.613604        43.9084 
 358   0.0000       1.629895        44.3517 
 359   0.0000       1.635638        44.5080 
 360   0.0000       1.646071        44.7919 
 361   0.0000       1.655064        45.0366 
 362   0.0000       1.657014        45.0896 
 363   0.0000       1.662810        45.2474 
 364   0.0000       1.668674        45.4069 
 365   0.0000       1.671625        45.4872 
 366   0.0000       1.676575        45.6219 
 367   0.0000       1.693530        46.0833 
 368   0.0000       1.698587        46.2209 
 369   0.0000       1.717766        46.7428 
 370   0.0000       1.723680        46.9037 
 371   0.0000       1.726611        46.9835 
 372   0.0000       1.736078        47.2411 
 373   0.0000       1.748080        47.5677 
 374   0.0000       1.757757        47.8310 
 375   0.0000       1.768508        48.1236 
 376   0.0000       1.785647        48.5899 
 377   0.0000       1.789914        48.7060 
 378   0.0000       1.798779        48.9473 
 379   0.0000       1.807521        49.1852 
 380   0.0000       1.813245        49.3409 
 381   0.0000       1.822040        49.5802 
 382   0.0000       1.828267        49.7497 
 383   0.0000       1.841149        50.1002 
 384   0.0000       1.844958        50.2039 
 385   0.0000       1.851014        50.3686 
 386   0.0000       1.859172        50.5907 
 387   0.0000       1.871096        50.9151 
 388   0.0000       1.874970        51.0205 
 389   0.0000       1.888212        51.3809 
 390   0.0000       1.890600        51.4458 
 391   0.0000       1.899926        51.6996 
 392   0.0000       1.906857        51.8882 
 393   0.0000       1.911672        52.0192 
 394   0.0000       1.929422        52.5022 
 395   0.0000       1.940421        52.8015 
 396   0.0000       1.953759        53.1645 
 397   0.0000       1.966535        53.5121 
 398   0.0000       1.973466        53.7007 
 399   0.0000       1.976623        53.7867 
 400   0.0000       1.977780        53.8181 
 401   0.0000       1.979093        53.8538 
 402   0.0000       1.984604        54.0038 
 403   0.0000       2.000025        54.4234 
 404   0.0000       2.018198        54.9179 
 405   0.0000       2.022999        55.0486 
 406   0.0000       2.033507        55.3345 
 407   0.0000       2.039035        55.4850 
 408   0.0000       2.047879        55.7256 
 409   0.0000       2.053645        55.8825 
 410   0.0000       2.056998        55.9738 
 411   0.0000       2.083484        56.6945 
 412   0.0000       2.088029        56.8182 
 413   0.0000       2.091879        56.9229 
 414   0.0000       2.097606        57.0788 
 415   0.0000       2.105179        57.2848 
 416   0.0000       2.116229        57.5855 
 417   0.0000       2.116397        57.5901 
 418   0.0000       2.132777        58.0358 
 419   0.0000       2.143706        58.3332 
 420   0.0000       2.148763        58.4708 
 421   0.0000       2.170060        59.0503 
 422   0.0000       2.173401        59.1412 
 423   0.0000       2.180689        59.3396 
 424   0.0000       2.187800        59.5331 
 425   0.0000       2.196688        59.7749 
 426   0.0000       2.212526        60.2059 
 427   0.0000       2.220278        60.4168 
 428   0.0000       2.235975        60.8440 
 429   0.0000       2.245886        61.1137 
 430   0.0000       2.250515        61.2396 
 431   0.0000       2.258153        61.4475 
 432   0.0000       2.260013        61.4981 
 433   0.0000       2.264577        61.6223 
 434   0.0000       2.273974        61.8780 
 435   0.0000       2.303588        62.6838 
 436   0.0000       2.306725        62.7692 
 437   0.0000       2.314491        62.9805 
 438   0.0000       2.321266        63.1649 
 439   0.0000       2.324003        63.2393 
 440   0.0000       2.330003        63.4026 
 441   0.0000       2.336459        63.5783 
 442   0.0000       2.338101        63.6230 
 443   0.0000       2.359970        64.2180 
 444   0.0000       2.375685        64.6457 
 445   0.0000       2.387832        64.9762 
 446   0.0000       2.393968        65.1432 
 447   0.0000       2.406941        65.4962 
 448   0.0000       2.419549        65.8393 
 449   0.0000       2.430792        66.1452 
 450   0.0000       2.437723        66.3338 
 451   0.0000       2.447006        66.5864 
 452   0.0000       2.470700        67.2312 
 453   0.0000       2.472144        67.2705 
 454   0.0000       2.487782        67.6960 
 455   0.0000       2.499739        68.0213 
 456   0.0000       2.506670        68.2100 
 457   0.0000       2.519006        68.5456 
 458   0.0000       2.524102        68.6843 
 459   0.0000       2.531754        68.8925 
 460   0.0000       2.533995        68.9535 
 461   0.0000       2.547896        69.3318 
 462   0.0000       2.549856        69.3851 
 463   0.0000       2.557755        69.6001 
 464   0.0000       2.562239        69.7221 
 465   0.0000       2.572144        69.9916 
[...]
 13:     98.81   0.000895    4.52  0.002826  (-0.036649  0.003116  0.038376)
 14:    116.68   0.001520    7.68  0.004065  ( 0.030208  0.049261  0.026946)
 15:    131.57   0.000194    0.98  0.000459  ( 0.011263 -0.003561 -0.017877)
 16:    162.99   0.000619    3.13  0.001186  ( 0.020729  0.002031 -0.027428)
 17:    167.08   0.005112   25.83  0.009547  (-0.047034 -0.080906  0.028090)
 18:    171.70   0.000748    3.78  0.001359  (-0.031030 -0.017373  0.009736)
 19:    175.73   0.013734   69.40  0.024388  ( 0.101844  0.105268 -0.054171)
 20:    199.16   0.000487    2.46  0.000763  (-0.010119 -0.022949  0.011573)
 21:    208.18   0.000706    3.57  0.001058  ( 0.023307  0.016948 -0.015074)
 22:    232.60   0.000803    4.06  0.001078  ( 0.008790 -0.025719  0.018418)
 23:    256.47   0.000347    1.76  0.000423  (-0.008095 -0.012078 -0.014534)
 24:    262.06   0.000199    1.01  0.000237  ( 0.014039 -0.003318 -0.005385)
 25:    268.61   0.000143    0.72  0.000166  (-0.001975 -0.000421  0.012719)
 26:    307.10   0.002029   10.25  0.002061  (-0.000083 -0.034779 -0.029187)
 27:    321.37   0.001329    6.72  0.001291  ( 0.000791 -0.012070 -0.033826)
 28:    371.50   0.006145   31.06  0.005162  (-0.027369  0.040200  0.052885)
 29:    399.10   0.009328   47.14  0.007294  (-0.068219  0.039445 -0.032927)
 30:    404.57   0.000618    3.12  0.000477  (-0.006904  0.008932  0.018695)
 31:    436.64   0.000991    5.01  0.000709  ( 0.017041 -0.008599  0.018553)
 32:    443.05   0.001568    7.92  0.001104  ( 0.026483  0.008095  0.018369)
 33:    457.35   0.004028   20.36  0.002748  ( 0.015743 -0.008848 -0.049217)
 34:    486.95   0.005707   28.84  0.003657  (-0.042900  0.038832 -0.017575)
 35:    546.72   0.003088   15.61  0.001763  ( 0.040260 -0.005933  0.010329)
 36:    555.71   0.002833   14.32  0.001591  ( 0.019317 -0.005295 -0.034493)
 37:    559.18   0.007988   40.37  0.004458  ( 0.016343  0.023532  0.060308)
 38:    574.35   0.012794   64.66  0.006952  ( 0.025026 -0.058889 -0.053455)
 39:    591.35   0.018396   92.96  0.009708  ( 0.004469 -0.033442 -0.092571)
 40:    625.47   0.000698    3.53  0.000348  (-0.000872  0.012484  0.013847)
 41:    644.48   0.002783   14.06  0.001347  ( 0.015921 -0.032924 -0.003154)
 42:    653.94   0.012141   61.35  0.005794  (-0.060694  0.033091 -0.031857)
 43:    678.03   0.004677   23.64  0.002153  ( 0.020836  0.027813 -0.030741)
 44:    697.35   0.001095    5.53  0.000490  (-0.021155 -0.001908  0.006226)
 45:    707.58   0.010663   53.88  0.004702  ( 0.037793 -0.055513  0.013872)
 46:    716.97   0.010397   52.54  0.004525  ( 0.064675 -0.007425 -0.016955)
 47:    743.19   0.012869   65.04  0.005404  ( 0.055315  0.031168 -0.037047)
 48:    768.02   0.008780   44.37  0.003567  ( 0.015948 -0.057057  0.007580)
 49:    774.09   0.014493   73.24  0.005843  (-0.066270 -0.023447  0.030020)
 50:    785.12   0.004487   22.68  0.001784  ( 0.022080  0.025094 -0.025814)
 51:    803.93   0.004911   24.82  0.001906  ( 0.019608  0.032534 -0.021523)
 52:    848.56   0.000421    2.13  0.000155  (-0.001493 -0.003971  0.011704)
 53:    860.45   0.000923    4.67  0.000335  (-0.006156 -0.004973 -0.016498)
 54:    869.67   0.007417   37.48  0.002662  (-0.011484 -0.030519  0.039978)
 55:    875.90   0.001520    7.68  0.000541  (-0.004826 -0.015280  0.016872)
 56:    898.58   0.003326   16.81  0.001155  ( 0.015456  0.014652 -0.026488)
 57:    938.31   0.000996    5.03  0.000331  ( 0.005332 -0.000085  0.017402)
 58:    955.81   0.000074    0.37  0.000024  (-0.004599  0.000917 -0.001470)
 59:    974.62   0.001234    6.24  0.000395  ( 0.010012 -0.014917 -0.008507)
 60:    976.84   0.010364   52.38  0.003311  ( 0.039151 -0.039972 -0.013430)
 61:    983.28   0.016305   82.40  0.005175  ( 0.043750 -0.056876 -0.005073)
 62:    991.72   0.000956    4.83  0.000301  ( 0.006676  0.004670  0.015308)
 63:   1017.64   0.009998   50.52  0.003066  (-0.017585  0.010535 -0.051435)
 64:   1022.74   0.030615  154.71  0.009341  ( 0.075733 -0.041699  0.043209)
 65:   1055.26   0.002745   13.87  0.000812  ( 0.012562 -0.024039  0.008723)
 66:   1073.82   0.061838  312.50  0.017971  ( 0.033745 -0.005230 -0.129632)
 67:   1099.53   0.003600   18.20  0.001022  ( 0.009874 -0.024502 -0.018001)
 68:   1114.98   0.009416   47.59  0.002635  ( 0.042353 -0.028894 -0.002594)
 69:   1117.83   0.002979   15.06  0.000832  (-0.005823 -0.018778 -0.021101)
 70:   1148.83   0.000261    1.32  0.000071  ( 0.006760  0.003071 -0.003968)
 71:   1149.07   0.000421    2.13  0.000114  (-0.006686 -0.002917 -0.007810)
 72:   1176.27   0.002561   12.94  0.000679  ( 0.007093 -0.024466 -0.005524)
 73:   1178.24   0.003734   18.87  0.000989  ( 0.020046 -0.024075  0.002769)
 74:   1181.14   0.006430   32.49  0.001699  (-0.025544  0.032137 -0.003675)
 75:   1191.91   0.001434    7.24  0.000375  (-0.003776  0.018833  0.002531)
 76:   1207.00   0.009303   47.01  0.002405  ( 0.003861 -0.036374 -0.032669)
 77:   1241.54   0.088574  447.62  0.022263  (-0.095104  0.114293 -0.012476)
 78:   1256.75   0.131415  664.12  0.032632  ( 0.099682 -0.069625 -0.133595)
 79:   1275.00   0.039988  202.08  0.009787  (-0.058299  0.035252 -0.071733)
 80:   1289.32   0.003141   15.87  0.000760  ( 0.013166 -0.021490  0.011183)
 81:   1316.93   0.005721   28.91  0.001356  ( 0.027493 -0.013160  0.020655)
 82:   1331.50   0.008381   42.36  0.001964  ( 0.034763 -0.005257  0.026987)
 83:   1352.56   0.014917   75.38  0.003442  ( 0.042044 -0.018272  0.036606)
 84:   1395.66   0.106895  540.20  0.023901  (-0.120332  0.093635 -0.025577)
 85:   1417.65   0.055932  282.66  0.012312  (-0.093299  0.059982 -0.003113)
 86:   1441.87   0.105280  532.04  0.022786  ( 0.115086 -0.081164  0.054344)
 87:   1455.37   0.004522   22.85  0.000970  (-0.009564 -0.007773 -0.028597)
 88:   1458.75   0.002947   14.89  0.000631  ( 0.020030 -0.012356 -0.008753)
 89:   1471.62   0.006913   34.94  0.001466  (-0.032352  0.002736  0.020293)
 90:   1474.77   0.001762    8.91  0.000373  ( 0.012739  0.010023 -0.010495)
 91:   1487.15   0.035533  179.57  0.007456  (-0.056471  0.065274 -0.002592)
 92:   1488.69   0.065362  330.31  0.013701  ( 0.086241 -0.073252  0.029966)
 93:   1490.80   0.006302   31.85  0.001319  (-0.021139  0.005891 -0.028941)
 94:   1504.31   0.069307  350.25  0.014377  (-0.091273  0.039054 -0.067242)
 95:   1512.57   0.153910  777.80  0.031754  (-0.131923  0.118468  0.017758)
 96:   1532.38   0.111978  565.89  0.022804  (-0.017791 -0.067161 -0.134077)
 97:   1572.79   0.018703   94.52  0.003711  ( 0.011029  0.027741  0.053101)
 98:   1581.97   0.014679   74.18  0.002896  (-0.027079  0.030671 -0.034952)
 99:   1605.57   0.005950   30.07  0.001156  ( 0.019320 -0.021407  0.018026)
100:   1609.98   0.002249   11.37  0.000436  (-0.014341  0.014137  0.005523)
101:   1681.81   0.130101  657.48  0.024140  (-0.076793  0.099107 -0.091767)
102:   2985.59   0.013601   68.73  0.001422  ( 0.026379 -0.012721  0.023746)
103:   3025.05   0.006062   30.63  0.000625  (-0.004001  0.011015 -0.022091)
104:   3048.62   0.009998   50.53  0.001023  ( 0.022587  0.014520 -0.017391)
105:   3109.47   0.004442   22.45  0.000446  ( 0.018602  0.009477  0.003160)
106:   3113.72   0.004975   25.14  0.000499  (-0.007231  0.019926  0.007021)
107:   3120.43   0.003909   19.76  0.000391  (-0.008883  0.010955  0.013858)
108:   3138.31   0.002473   12.50  0.000246  ( 0.005846  0.007806  0.012279)
109:   3151.55   0.001680    8.49  0.000166  (-0.009710  0.008145  0.002389)
110:   3152.97   0.000505    2.55  0.000050  ( 0.003608  0.002387  0.005595)
111:   3162.73   0.003292   16.64  0.000325  ( 0.005239 -0.016790 -0.003936)
112:   3164.77   0.000951    4.81  0.000094  (-0.006950  0.003866 -0.005526)
113:   3166.73   0.002303   11.64  0.000227  (-0.010387 -0.004631 -0.009882)
114:   3170.32   0.001598    8.08  0.000157  ( 0.010535 -0.001676  0.006595)
115:   3174.92   0.001513    7.65  0.000149  ( 0.008832 -0.002565  0.008007)
116:   3194.59   0.000972    4.91  0.000095  ( 0.000855 -0.005543 -0.007968)

* The epsilon (eps) is given for a Dirac delta lineshape.
** The dipole moment derivative (T) already includes vibrational overlap.

The first frequency considered to be a vibration is 6
The total number of vibrations considered is 111


--------------------------
THERMOCHEMISTRY AT 298.15K
--------------------------

Temperature         ... 298.15 K
Pressure            ... 1.00 atm
Total Mass          ... 318.25 AMU

Throughout the following assumptions are being made:
  (1) The electronic state is orbitally nondegenerate
  (2) There are no thermally accessible electronically excited states
  (3) Hindered rotations indicated by low frequency modes are not
      treated as such but are treated as vibrations and this may
      cause some error
  (4) All equations used are the standard statistical mechanics
      equations for an ideal gas
  (5) All vibrations are strictly harmonic

freq.      11.73  E(vib)   ...       0.58 
freq.      13.77  E(vib)   ...       0.57 
freq.      32.16  E(vib)   ...       0.55 
freq.      46.73  E(vib)   ...       0.53 
freq.      55.07  E(vib)   ...       0.52 
freq.      69.12  E(vib)   ...       0.50 
freq.      89.70  E(vib)   ...       0.47 
freq.      98.81  E(vib)   ...       0.46 
freq.     116.68  E(vib)   ...       0.44 
freq.     131.57  E(vib)   ...       0.42 
freq.     162.99  E(vib)   ...       0.39 
freq.     167.08  E(vib)   ...       0.39 
freq.     171.70  E(vib)   ...       0.38 
freq.     175.73  E(vib)   ...       0.38 
freq.     199.16  E(vib)   ...       0.35 
freq.     208.18  E(vib)   ...       0.34 
freq.     232.60  E(vib)   ...       0.32 
freq.     256.47  E(vib)   ...       0.30 
freq.     262.06  E(vib)   ...       0.29 
freq.     268.61  E(vib)   ...       0.29 
freq.     307.10  E(vib)   ...       0.26 
freq.     321.37  E(vib)   ...       0.25 
freq.     371.50  E(vib)   ...       0.21 
freq.     399.10  E(vib)   ...       0.19 
freq.     404.57  E(vib)   ...       0.19 
freq.     436.64  E(vib)   ...       0.17 
freq.     443.05  E(vib)   ...       0.17 
freq.     457.35  E(vib)   ...       0.16 
freq.     486.95  E(vib)   ...       0.15 
freq.     546.72  E(vib)   ...       0.12 
freq.     555.71  E(vib)   ...       0.12 
freq.     559.18  E(vib)   ...       0.12 
freq.     574.35  E(vib)   ...       0.11 
freq.     591.35  E(vib)   ...       0.10 
freq.     625.47  E(vib)   ...       0.09 
freq.     644.48  E(vib)   ...       0.09 
freq.     653.94  E(vib)   ...       0.08 
freq.     678.03  E(vib)   ...       0.08 
freq.     697.35  E(vib)   ...       0.07 
freq.     707.58  E(vib)   ...       0.07 
freq.     716.97  E(vib)   ...       0.07 
freq.     743.19  E(vib)   ...       0.06 
freq.     768.02  E(vib)   ...       0.06 
freq.     774.09  E(vib)   ...       0.05 
freq.     785.12  E(vib)   ...       0.05 
freq.     803.93  E(vib)   ...       0.05 
freq.     848.56  E(vib)   ...       0.04 
freq.     860.45  E(vib)   ...       0.04 
freq.     869.67  E(vib)   ...       0.04 
freq.     875.90  E(vib)   ...       0.04 
freq.     898.58  E(vib)   ...       0.03 
freq.     938.31  E(vib)   ...       0.03 
freq.     955.81  E(vib)   ...       0.03 
freq.     974.62  E(vib)   ...       0.03 
freq.     976.84  E(vib)   ...       0.03 
freq.     983.28  E(vib)   ...       0.02 
freq.     991.72  E(vib)   ...       0.02 
freq.    1017.64  E(vib)   ...       0.02 
freq.    1022.74  E(vib)   ...       0.02 
freq.    1055.26  E(vib)   ...       0.02 
freq.    1073.82  E(vib)   ...       0.02 
freq.    1099.53  E(vib)   ...       0.02 
freq.    1114.98  E(vib)   ...       0.01 
freq.    1117.83  E(vib)   ...       0.01 
freq.    1148.83  E(vib)   ...       0.01 
freq.    1149.07  E(vib)   ...       0.01 
freq.    1176.27  E(vib)   ...       0.01 
freq.    1178.24  E(vib)   ...       0.01 
freq.    1181.14  E(vib)   ...       0.01 
freq.    1191.91  E(vib)   ...       0.01 
freq.    1207.00  E(vib)   ...       0.01 
freq.    1241.54  E(vib)   ...       0.01 
freq.    1256.75  E(vib)   ...       0.01 
freq.    1275.00  E(vib)   ...       0.01 
freq.    1289.32  E(vib)   ...       0.01 
freq.    1316.93  E(vib)   ...       0.01 
freq.    1331.50  E(vib)   ...       0.01 
freq.    1352.56  E(vib)   ...       0.01 
freq.    1395.66  E(vib)   ...       0.00 
freq.    1417.65  E(vib)   ...       0.00 
freq.    1441.87  E(vib)   ...       0.00 
freq.    1455.37  E(vib)   ...       0.00 
freq.    1458.75  E(vib)   ...       0.00 
freq.    1471.62  E(vib)   ...       0.00 
freq.    1474.77  E(vib)   ...       0.00 
freq.    1487.15  E(vib)   ...       0.00 
freq.    1488.69  E(vib)   ...       0.00 
freq.    1490.80  E(vib)   ...       0.00 
freq.    1504.31  E(vib)   ...       0.00 
freq.    1512.57  E(vib)   ...       0.00 
freq.    1532.38  E(vib)   ...       0.00 
freq.    1572.79  E(vib)   ...       0.00 
freq.    1581.97  E(vib)   ...       0.00 
freq.    1605.57  E(vib)   ...       0.00 
freq.    1609.98  E(vib)   ...       0.00 
freq.    1681.81  E(vib)   ...       0.00 
freq.    2985.59  E(vib)   ...       0.00 
freq.    3025.05  E(vib)   ...       0.00 
freq.    3048.62  E(vib)   ...       0.00 
freq.    3109.47  E(vib)   ...       0.00 
freq.    3113.72  E(vib)   ...       0.00 
freq.    3120.43  E(vib)   ...       0.00 
freq.    3138.31  E(vib)   ...       0.00 
freq.    3151.55  E(vib)   ...       0.00 
freq.    3152.97  E(vib)   ...       0.00 
freq.    3162.73  E(vib)   ...       0.00 
freq.    3164.77  E(vib)   ...       0.00 
freq.    3166.73  E(vib)   ...       0.00 
freq.    3170.32  E(vib)   ...       0.00 
freq.    3174.92  E(vib)   ...       0.00 
freq.    3194.59  E(vib)   ...       0.00 

------------
INNER ENERGY
------------

The inner energy is: U= E(el) + E(ZPE) + E(vib) + E(rot) + E(trans)
    E(el)   - is the total energy from the electronic structure calculation
              = E(kin-el) + E(nuc-el) + E(el-el) + E(nuc-nuc)
    E(ZPE)  - the the zero temperature vibrational energy from the frequency calculation
    E(vib)  - the the finite temperature correction to E(ZPE) due to population
              of excited vibrational states
    E(rot)  - is the rotational thermal energy
    E(trans)- is the translational thermal energy

Summary of contributions to the inner energy U:
Electronic energy                ...  -1079.34022460 Eh
Zero point energy                ...      0.28900415 Eh     181.35 kcal/mol
Thermal vibrational correction   ...      0.01954919 Eh      12.27 kcal/mol
Thermal rotational correction    ...      0.00141627 Eh       0.89 kcal/mol
Thermal translational correction ...      0.00141627 Eh       0.89 kcal/mol
-----------------------------------------------------------------------
Total thermal energy                  -1079.02883872 Eh


Summary of corrections to the electronic energy:
(perhaps to be used in another calculation)
Total thermal correction                  0.02238173 Eh      14.04 kcal/mol
Non-thermal (ZPE) correction              0.28900415 Eh     181.35 kcal/mol
-----------------------------------------------------------------------
Total correction                          0.31138588 Eh     195.40 kcal/mol


--------
ENTHALPY
--------

The enthalpy is H = U + kB*T
                kB is Boltzmann's constant
Total free energy                 ...  -1079.02883872 Eh 
Thermal Enthalpy correction       ...      0.00094421 Eh       0.59 kcal/mol
-----------------------------------------------------------------------
Total Enthalpy                    ...  -1079.02789451 Eh


Note: Only C1 symmetry has been detected, increase convergence thresholds 
      if your molecule has a higher symmetry. Symmetry factor of 1.0 is   
      used for the rotational entropy correction. 
 

Note: Rotational entropy computed according to Herzberg 
Infrared and Raman Spectra, Chapter V,1, Van Nostrand Reinhold, 1945 
Point Group:  C1, Symmetry Number:   1  
Rotational constants in cm-1:     0.020123     0.002710     0.002442 

Vibrational entropy computed according to the QRRHO of S. Grimme
Chem.Eur.J. 2012 18 9955


-------
ENTROPY
-------

The entropy contributions are T*S = T*(S(el)+S(vib)+S(rot)+S(trans))
     S(el)   - electronic entropy
     S(vib)  - vibrational entropy
     S(rot)  - rotational entropy
     S(trans)- translational entropy
The entropies will be listed as multiplied by the temperature to get
units of energy

Electronic entropy                ...      0.00000000 Eh      0.00 kcal/mol
Vibrational entropy               ...      0.03562214 Eh     22.35 kcal/mol
Rotational entropy                ...      0.01698487 Eh     10.66 kcal/mol
Translational entropy             ...      0.02051083 Eh     12.87 kcal/mol
-----------------------------------------------------------------------
Final entropy term                ...      0.07311784 Eh     45.88 kcal/mol

In case the symmetry of your molecule has not been determined correctly
or in case you have a reason to use a different symmetry number we print 
out the resulting rotational entropy values for sn=1,12 :
 --------------------------------------------------------
|  sn= 1 | S(rot)=       0.01698487 Eh     10.66 kcal/mol|
|  sn= 2 | S(rot)=       0.01633041 Eh     10.25 kcal/mol|
|  sn= 3 | S(rot)=       0.01594758 Eh     10.01 kcal/mol|
|  sn= 4 | S(rot)=       0.01567596 Eh      9.84 kcal/mol|
|  sn= 5 | S(rot)=       0.01546527 Eh      9.70 kcal/mol|
|  sn= 6 | S(rot)=       0.01529313 Eh      9.60 kcal/mol|
|  sn= 7 | S(rot)=       0.01514758 Eh      9.51 kcal/mol|
|  sn= 8 | S(rot)=       0.01502150 Eh      9.43 kcal/mol|
|  sn= 9 | S(rot)=       0.01491029 Eh      9.36 kcal/mol|
|  sn=10 | S(rot)=       0.01481081 Eh      9.29 kcal/mol|
|  sn=11 | S(rot)=       0.01472082 Eh      9.24 kcal/mol|
|  sn=12 | S(rot)=       0.01463867 Eh      9.19 kcal/mol|
 --------------------------------------------------------


-------------------
GIBBS FREE ENERGY
-------------------

The Gibbs free energy is G = H - T*S

Total enthalpy                    ...  -1079.02789451 Eh 
Total entropy correction          ...     -0.07311784 Eh    -45.88 kcal/mol
-----------------------------------------------------------------------
Final Gibbs free energy         ...  -1079.10101235 Eh

For completeness - the Gibbs free energy minus the electronic energy
G-E(el)                           ...      0.23921225 Eh    150.11 kcal/mol



Timings for individual modules:

Sum of individual times         ...    54130.667 sec (= 902.178 min)
GTO integral calculation        ...       55.043 sec (=   0.917 min)   0.1 %
SCF iterations                  ...     4625.947 sec (=  77.099 min)   8.5 %
SCF Gradient evaluation         ...     1321.450 sec (=  22.024 min)   2.4 %
Geometry relaxation             ...        4.626 sec (=   0.077 min)   0.0 %
Numerical frequency calculation ...    48123.601 sec (= 802.060 min)  88.9 %
                             ****ORCA TERMINATED NORMALLY****
TOTAL RUN TIME: 0 days 15 hours 0 minutes 2 seconds 511 msec
‘Li-Aldol_freqopt.cpcm’ -> ‘/home/rothe/Calc/Li_Path/THF/Li-Aldol/Li-Aldol_freqopt.cpcm’
‘Li-Aldol_freqopt.densities’ -> ‘/home/rothe/Calc/Li_Path/THF/Li-Aldol/Li-Aldol_freqopt.densities’
‘Li-Aldol_freqopt.engrad’ -> ‘/home/rothe/Calc/Li_Path/THF/Li-Aldol/Li-Aldol_freqopt.engrad’
‘Li-Aldol_freqopt.gbw’ -> ‘/home/rothe/Calc/Li_Path/THF/Li-Aldol/Li-Aldol_freqopt.gbw’
‘Li-Aldol_freqopt.hess’ -> ‘/home/rothe/Calc/Li_Path/THF/Li-Aldol/Li-Aldol_freqopt.hess’
‘Li-Aldol_freqopt.job’ -> ‘/home/rothe/Calc/Li_Path/THF/Li-Aldol/Li-Aldol_freqopt.job’
‘Li-Aldol_freqopt.opt’ -> ‘/home/rothe/Calc/Li_Path/THF/Li-Aldol/Li-Aldol_freqopt.opt’
‘Li-Aldol_freqopt_property.txt’ -> ‘/home/rothe/Calc/Li_Path/THF/Li-Aldol/Li-Aldol_freqopt_property.txt’
‘Li-Aldol_freqopt_trj.xyz’ -> ‘/home/rothe/Calc/Li_Path/THF/Li-Aldol/Li-Aldol_freqopt_trj.xyz’
‘Li-Aldol_freqopt.xyz’ -> ‘/home/rothe/Calc/Li_Path/THF/Li-Aldol/Li-Aldol_freqopt.xyz’
