38
 energy: -62.950551091076 gnorm: 0.000918419733 xtb: 6.4.1 (afa7bdf)
c        -3.33309245032775    0.36665786659447   -0.07303361766073
c        -2.64270703115682   -0.78805027513037    0.29528539601636
c        -1.26707119146491   -0.72614324562039    0.51095923871588
c        -0.59944950755894    0.47179143402977    0.35740086534497
c        -1.29099758644798    1.63459855085094    0.01403849969216
c        -2.66533670804164    1.56472975079767   -0.21120545425937
h        -3.20389866327727    2.45392383914386   -0.50140137250692
h        -0.73232473700497   -1.61980338356517    0.79064709556738
h         0.46625322615271    0.51901093790425    0.52532785749639
c        -0.55110951457967    2.88469970375655   -0.16538602471532
h         0.28416353858386    2.81891396029616   -0.85387367376095
c        -0.79662835109884    4.06076291358603    0.42514898225512
h        -4.39710097964557    0.30282121300104   -0.24541123465672
c        -3.39713515421521   -2.05338880640145    0.43938380156975
o        -2.62074641859702   -3.07814912166515    0.80193252128628
c        -3.25047246665050   -4.34423905929403    0.96568752391541
h        -2.44691751401238   -5.05295192202848    1.14718607522700
h        -3.80872251563003   -4.60964757735606    0.06539461153203
h        -3.94000513208825   -4.31582520468482    1.81204741530797
o        -4.59098491888589   -2.16534555151738    0.24835773230652
c        -1.82065060799403    4.30095058971903    1.45802938057444
h        -0.19889836306873    4.91719519821466    0.15135040620008
c        -2.05099931125824    5.73059190609507    1.80768470605791
o        -2.45292801405108    3.41121858334363    2.00460818746036
c        -1.01022898300683    6.65283800127794    1.92744358576393
c        -1.29486950905777    7.95645093633422    2.28386461116492
c        -2.59868015968163    8.37218939122005    2.50434447003444
c        -3.64436745103640    7.45915500610669    2.39112963713944
c        -3.35471484527457    6.13605205863256    2.05675953021652
h        -4.16491089000008    5.42676889970898    1.98254709021839
h        -2.78516200539235    9.40024038509452    2.77004859438513
h         0.01452400592092    6.34776610355163    1.78643398609306
h        -0.49116539147679    8.66923110622094    2.39127670636626
o        -4.95534588988960    7.74594895493592    2.58508378184167
c        -5.32377481819987    9.06256447714806    2.93824133985219
h        -4.87826194330901    9.35886427374835    3.89272615325498
h        -6.40773006590844    9.04202629154729    3.03456207425047
h        -5.03987045716785    9.77830264370237    2.16074797115318
38
 energy: -62.919434402806 gnorm: 0.068516828588 xtb: 6.4.1 (afa7bdf)
c        -3.30142248843333    0.52944012676733    0.16799485363528
c        -2.71634317196932   -0.72273624151423    0.35608650672461
c        -1.32563939341687   -0.79356007956005    0.29568161223861
c        -0.57749350914348    0.35535931220886    0.13881078707172
c        -1.17735932794896    1.60600752525896   -0.01706427997643
c        -2.56971199030654    1.68138484402154   -0.02691192216608
h        -3.12792243981471    2.57470681413337   -0.26208375702496
h        -0.81084419168358   -1.73360207609353    0.41448610834937
h         0.49813057578614    0.26820411422412    0.17866465234440
c        -0.33842983986008    2.80504773026116   -0.04673712683259
h         0.58989230207760    2.73530614814009   -0.60295494263900
c        -0.54945644917761    3.95252864862481    0.60968592404876
h        -4.37753634501719    0.45956824476718    0.22276939721391
c        -3.51661094639167   -1.95945916022491    0.50133036207809
o        -2.71180834221443   -2.99828069263513    0.74111649543371
c        -3.25357546421911   -4.30648639653387    0.88754246407031
h        -2.90693342482437   -4.53682975486268    1.89138380815736
h        -2.83974692491629   -4.96073923003119    0.11727543222149
h        -4.33769468681004   -4.19993722084046    0.81059769656276
o        -4.72562502785503   -2.06752642790120    0.47118065131118
c        -1.73662267640449    4.31873826325632    1.40321012589490
h         0.15425462594230    4.75589334263532    0.45119613305940
c        -2.06446854552912    5.74800794938534    1.66569650453342
o        -2.50197592382792    3.50458387678101    1.89467048492379
c        -1.06306751253235    6.71073988324936    1.80143988260892
c        -1.33602332742002    8.01945326765443    2.14817803694305
c        -2.65848497335544    8.38740598649692    2.34073480070842
c        -3.65861394443208    7.41992331277094    2.28047945478154
c        -3.37774675446249    6.09338866364225    1.95226769374075
h        -4.20614422011676    5.40146739636706    1.95548908600636
h        -2.85758999614129    9.40791237795419    2.62566802290656
h         0.00504425162170    6.57695837520732    1.73578104961963
h        -0.49661552194134    8.68255147126367    2.29387836184537
o        -4.95593834942422    7.64670270950247    2.60305348076577
c        -5.43871805493370    8.88572171374671    3.07812426956698
h        -4.97706446367166    9.09903938804706    4.04698343724152
h        -6.51455654458135    8.76680078110913    3.19252637104434
h        -5.15232711070923    9.71996794362984    2.43051929090322
38
 energy: -62.920691916498 gnorm: 0.084524517921 xtb: 6.4.1 (afa7bdf)
c        -3.30173308737001    0.47868150163863    0.13025790373034
c        -2.65623085762765   -0.75671739206863    0.18277740345568
c        -1.27245055676671   -0.80711461329992    0.02361117358769
c        -0.50240589385866    0.33735482801376   -0.01597845910507
c        -1.13120464746136    1.57476773191713    0.13125722697615
c        -2.52497430744469    1.61754384555927    0.13221461987262
h        -2.98159992593829    2.59501857604086    0.16327903639476
h        -0.78880081566783   -1.76044132176125   -0.11801736550037
h         0.55684895603409    0.24616625024476   -0.20522777801370
c        -0.28668489721477    2.77004533750971    0.10938617381100
h         0.57405503652049    2.62341612458206   -0.53377070040379
c        -0.54425196398507    3.93790527676190    0.71096596318131
h        -4.35811674273765    0.66392436238393    0.25532582741549
c        -3.49603803060216   -1.92620895036004    0.52631951869164
o        -2.77537513167032   -3.04666182852723    0.62422301331327
c        -3.53675682372663   -4.23054256941483    0.83654032399185
h        -4.55626695253369   -3.93996062779744    1.07544917903245
h        -3.14235776777746   -4.71680862362531    1.73130668266820
h        -3.37736921143505   -4.85406664739109   -0.04573005606363
o        -4.68000949526644   -1.87200098542031    0.79009141718994
c        -1.63343849397505    4.39593787884833    1.59246049216590
h         0.23167823531572    4.66985036636118    0.54389766304355
c        -1.96690682379096    5.84733514488354    1.63039061376843
o        -2.15951148148971    3.55090773195161    2.29908450949603
c        -1.05561409235467    6.90276807298623    1.56964552832427
c        -1.40705618904921    8.17625957030926    1.97234990572997
c        -2.74327016789772    8.38699429060437    2.27483164466320
c        -3.72252379824873    7.39949158440705    2.19859431424328
c        -3.29757898266437    6.09699051520849    1.93550424979171
h        -3.94559680582585    5.25028667956315    2.10335325408046
h        -2.94499655282190    9.40915329097846    2.55188848242798
h        -0.01083903755362    6.70077151517741    1.39439202240984
h        -0.79722452445310    9.06274023168169    2.06061462396504
o        -5.04632702646579    7.46066112979980    2.48553823528406
c        -5.48626056370124    8.63012311305583    3.14337844454496
h        -4.87821830550513    8.77146807582648    4.04205678986429
h        -6.51417248877642    8.49886336418820    3.47628449327947
h        -5.40063014671034    9.53120251747766    2.52847837821010
38
 energy: -62.923897327040 gnorm: 0.080994255416 xtb: 6.4.1 (afa7bdf)
c        -3.21031254677490    0.63860825293204    0.56135349628116
c        -2.65315271913984   -0.62537036041961    0.36751636998054
c        -1.29413436873950   -0.71807908614542    0.07222686694429
c        -0.53918463244711    0.43048966622169   -0.05100921780209
c        -1.09861981871776    1.69636286669737    0.13024810683757
c        -2.45013513894591    1.78431136586941    0.46205522941768
h        -2.95440157847748    2.73841146450435    0.44369337083955
h        -0.93334945356656   -1.72909670030800   -0.03017016592919
h         0.52465074597382    0.36569333641846   -0.22481144920001
c        -0.24348236919191    2.87438258569481   -0.02268972112944
h         0.56749950874787    2.76702788568231   -0.73459384780170
c        -0.39157315816871    3.98810522736952    0.70520234872982
h        -4.28162421527632    0.56272587500436    0.67287254615780
c        -3.52905411273007   -1.80868932360294    0.52101146079132
o        -2.95466670769991   -2.99722177347615    0.31650112033232
c        -3.72217696597352   -4.15374895238230    0.63229728334239
h        -3.83554829314484   -4.84032079434523   -0.20237765715156
h        -4.72796964858626   -3.82403930193830    0.90115552314464
h        -3.18871864387734   -4.55892271862724    1.49476128122267
o        -4.70480547561201   -1.60545081141102    0.74596785569763
c        -1.38148166404148    4.28877833921148    1.75535977060829
h         0.24838884082432    4.78390389332054    0.35466528305145
c        -1.85969407980730    5.69864867351913    1.80801343217436
o        -1.64563674757885    3.47517317814531    2.62623001917576
c        -1.08439153048453    6.82639791644802    1.53384066679231
c        -1.58411248623782    8.11384019790185    1.54914808574335
c        -2.91703365069519    8.29634761753208    1.88289104528634
c        -3.73682391529812    7.21790550994476    2.20664708274720
c        -3.18579736604186    5.93796563213292    2.14010986593248
h        -3.89096482159727    5.14625466468527    2.34244719431785
h        -3.29789602773199    9.29678991835001    2.01064908119257
h        -0.01943998139391    6.66869992962045    1.46995898684054
h        -0.85191594849802    8.85506065957975    1.26628106806420
o        -4.99782148684366    7.22793696856770    2.70496227656213
c        -5.56478080832756    8.44084863921771    3.15367042834122
h        -4.93997422464125    8.82652828529816    3.96495613671405
h        -6.56381899042324    8.26006128031016    3.54596767372565
h        -5.62192805758174    9.17932643071549    2.34821186412303
38
 energy: -62.931406774717 gnorm: 0.065593824352 xtb: 6.4.1 (afa7bdf)
c        -3.30724375855776    0.87503606100348    0.70893926326140
c        -2.82888944312960   -0.42533684484570    0.54816183204240
c        -1.50124776801819   -0.61530266259163    0.16868544425563
c        -0.65463687397243    0.46339153742850    0.01371674972413
c        -1.12758478175239    1.75716826503444    0.23892561028803
c        -2.47216824210569    1.95995347491293    0.54779146098806
h        -2.82791978555377    2.96704302292780    0.70316299685622
h        -1.17784636168721   -1.60616856658068   -0.10772701826306
h         0.33511966897102    0.28153067414084   -0.37802313709039
c        -0.20892888141047    2.87665079296928    0.02629738262061
h         0.52214586088043    2.62314607988486   -0.73349813073701
c        -0.22491308038082    4.03559528123790    0.69616907002895
h        -4.30654555768841    0.97888473070047    1.10455868909018
c        -3.70783052337698   -1.61120974224462    0.65850631474851
o        -3.06763771301004   -2.75004243102236    0.37999586797759
c        -3.75110644992240   -3.99426550815915    0.27447921911832
h        -3.06676341091711   -4.64307186179702    0.81451730205458
h        -3.83750154609429   -4.26089992439029   -0.78100839613926
h        -4.71574602618813   -3.89034351243046    0.77573605955582
o        -4.91485236028135   -1.57947417340596    0.78654428437287
c        -0.96281739615064    4.35729595672767    1.93114262286512
h         0.46830878276302    4.79516555575257    0.36720164775745
c        -1.67188849430909    5.66730275767966    1.94829528689014
o        -0.96513682659193    3.56466440879831    2.85951544604195
c        -1.13767642479353    6.78205378362087    1.30019754418935
c        -1.83229253771064    7.97527601116262    1.26567043867158
c        -3.11647256856475    8.07740007178064    1.77735827263383
c        -3.66429028326638    6.94807080361412    2.38103247316233
c        -2.91043549151985    5.78832448766286    2.56267759300263
h        -3.37568282494950    4.96133958581473    3.07711774251393
h        -3.69653351025496    8.98454231779796    1.72364333374993
h        -0.12336928955746    6.83501446274504    0.93764062890560
h        -1.51148652761428    8.81203432916121    0.66363032683836
o        -4.92277624615010    6.89325870769350    2.88277166923876
c        -5.59432864297054    8.13532836822471    2.86804344186855
h        -4.96043032421010    8.93984637770918    3.25306324374506
h        -6.45996114143621    7.90174894106794    3.48511678535273
h        -5.86719854621118    8.42701733257396    1.84929994360231
38
 energy: -62.928280923150 gnorm: 0.070060518494 xtb: 6.4.1 (afa7bdf)
c        -3.29424913152692    0.94686860338166    0.93554318725446
c        -2.85811774592780   -0.32865162461888    0.57710306110273
c        -1.54544686409894   -0.44455333979181    0.12302867845277
c        -0.70223653966945    0.64341850736298    0.02474370118781
c        -1.19235147618398    1.90627535888399    0.36125029648016
c        -2.47391640574940    2.05384737617435    0.89062563393118
h        -2.91558270142483    3.02844452345808    1.03211777131389
h        -1.16103185574004   -1.43962804446957   -0.03463843494104
h         0.31685112292344    0.52127764646288   -0.31095465310686
c        -0.25839968062534    3.00929663517147    0.13003956891207
h         0.32205105541574    2.88917263022025   -0.77807451902296
c         0.04655516897658    4.04161154840557    0.92594415377484
h        -4.28704782085584    1.19524320678241    1.27987457691929
c        -3.81995989849877   -1.45296949661002    0.61925383802200
o        -3.17650480622732   -2.56813553492143    0.26326931622569
c        -3.96438716689934   -3.73632535867661    0.06096201714061
h        -4.78142139100500   -3.69793309430293    0.77643201483023
h        -3.26855379982599   -4.55745530481419    0.24582321565435
h        -4.37719264751701   -3.77955247703042   -0.94914231405969
o        -5.00510439915194   -1.40516022989837    0.87896386513317
c        -0.69533845208712    4.44625335111050    2.13383998169005
h         0.85433830030431    4.69338029006837    0.62861114538555
c        -1.48917790003588    5.67531004460834    1.85378276735694
o        -0.69667326447130    3.82535509308942    3.18485359757212
c        -1.15735028759704    6.64369771751434    0.90499485072064
c        -2.01624059172655    7.72008596686114    0.79936089061553
c        -3.19033547002975    7.86542661612785    1.52168302010702
c        -3.53188181297521    6.86760915695690    2.43141792382123
c        -2.67071442317009    5.77937324022187    2.57437456067380
h        -2.99203234307434    4.98524426814731    3.23097308197100
h        -3.77019118375221    8.76968433799843    1.43031411746016
h        -0.20027760606549    6.59608037100115    0.41020635149263
h        -1.83166057857335    8.47664554609519    0.05164369000618
o        -4.59194070266000    6.80474691900794    3.27454119876938
c        -5.76471411639581    7.43999778005760    2.81086522109934
h        -5.64663217417420    8.52254505988998    2.91793803320747
h        -6.51797617531219    6.95529337877932    3.42918260745443
h        -5.85735944190771    7.20030570408762    1.74721899433101
38
 energy: -62.924256374891 gnorm: 0.084902977488 xtb: 6.4.1 (afa7bdf)
c        -3.11880273920452    1.14125024228641    1.00271521751887
c        -2.81422795670527   -0.14267818022253    0.55060470167462
c        -1.55095267176071   -0.45492995160893    0.05124898388037
c        -0.63246146602838    0.57361624010281   -0.00178983991267
c        -0.87937557495988    1.89339115662856    0.37963456694704
c        -2.12483758397467    2.09598679031300    0.97310237260678
h        -2.32754860267507    3.05584361870587    1.42311564161261
h        -1.36192407335031   -1.44494731422774   -0.33208033840868
h         0.32320478397065    0.31243438400874   -0.43148459366752
c         0.13758526639410    2.94373686790372    0.30931305806787
h         0.90067417179578    2.74539649156589   -0.43525430450481
c         0.26360299030558    4.11265860042220    0.94952975831426
h        -4.12978911205813    1.20213480810763    1.37701854749768
c        -3.87235794625087   -1.17695636877104    0.59106939571018
o        -3.47068353371032   -2.32851904747000    0.04616954207180
c        -4.35191708999669   -3.44394441543420   -0.02871708865370
h        -5.08864522518314   -3.36925653304727   -0.82405952208515
h        -4.88441423528421   -3.53086716925453    0.92075821636285
h        -3.68585186209635   -4.29906213792486   -0.16182796364005
o        -4.97473315256872   -1.06386482308386    1.08733724835695
c        -0.53655535943142    4.54475698250380    2.10978463339348
h         1.00350306574902    4.83560867366593    0.64031431462014
c        -1.42433179429723    5.73255264125674    1.96769902685281
o        -0.34194898997941    3.92304648859527    3.14213663825815
c        -1.37114269890348    6.51645101015067    0.81411447503180
c        -2.36452916298938    7.44989848241068    0.59202870998159
c        -3.53163804145007    7.46148051666412    1.33975515364152
c        -3.59977852653153    6.72399480938285    2.51932417923747
c        -2.46171287067095    5.98936568884619    2.85313569590157
h        -2.49320102271724    5.47629999169486    3.80222992567896
h        -4.39456219738408    8.06218991788207    1.10148396717684
h        -0.55376576650132    6.37915628507050    0.12410257963834
h        -2.15706815759055    8.02016289269507   -0.30088321419677
o        -4.65186017353033    6.65231685125985    3.37168559603493
c        -5.85839396181960    7.04795209280183    2.75387854155322
h        -5.96459070558295    8.13700477118606    2.75212667448748
h        -6.61939675699280    6.66162109001777    3.42936472537583
h        -5.94802120729058    6.59465587515250    1.76197721224185
38
 energy: -62.930489908360 gnorm: 0.070800442735 xtb: 6.4.1 (afa7bdf)
c        -2.84605746573820    1.26235218625223    1.19135509621670
c        -2.70587681552643    0.04293513138005    0.52877421990031
c        -1.45640043878326   -0.23380698350187   -0.02344350989294
c        -0.45844368582488    0.71764645063413   -0.07970360860629
c        -0.68011180501239    1.97180537288670    0.49144053549720
c        -1.86989959022542    2.23548562799420    1.16915906502222
h        -2.06430136431481    3.19985969567633    1.61314042999658
h        -1.16149187974489   -1.14946294253152   -0.51069159313078
h         0.50237696631153    0.51988533211329   -0.53121856251855
c         0.43608348077839    2.91693925175679    0.43477839321614
h         1.20600730147386    2.71991885619607   -0.30307282024620
c         0.54773712336122    4.02923576664288    1.17130118211943
h        -3.76954225533274    1.53340003203418    1.68085718191593
c        -3.83488747879122   -0.91108975783147    0.60738321581149
o        -3.64142603754880   -2.05182146547809   -0.06019350859753
c        -4.73622474680791   -2.96141017672745   -0.08065122041607
h        -4.38927852913869   -3.85507043247931   -0.59242840215834
h        -5.65013021153445   -2.64216546719359   -0.58609335641733
h        -5.03275711964203   -3.23936479289189    0.93295496562321
o        -4.84370564830714   -0.65832781876848    1.23404095787937
c        -0.41663097336203    4.56830364931872    2.14728978949594
h         1.41540608466360    4.66844869422993    1.10587550774993
c        -1.58444220677347    5.39244309385470    1.72752205348998
o        -0.19330174293713    4.26018393804945    3.30717449738461
c        -1.62717376306865    6.08637886064204    0.51726991351981
c        -2.66216197172329    6.97093227391589    0.28526209416262
c        -3.74139009565738    7.08614408854434    1.14744828283869
c        -3.70491971515553    6.34424748420409    2.32565486375536
c        -2.63826092365447    5.49621753221130    2.62463270638216
h        -2.68279604549037    4.94427665975927    3.55112376364976
h        -4.54196827773059    7.75662309230610    0.87950139169841
h        -0.81069091464663    5.94178334410324   -0.17230909848865
h        -2.64904410181038    7.66607315624821   -0.54065579349117
o        -4.62724767306394    6.39868228960767    3.31806682930733
c        -5.92484969107143    6.88100770720680    3.03962870973013
h        -5.90032195961817    7.96112302541723    2.86623365337465
h        -6.37666592693703    6.65762570342241    4.00431573294937
h        -6.35492888008218    6.37829987325614    2.16802359355834
38
 energy: -62.927065347400 gnorm: 0.075483676862 xtb: 6.4.1 (afa7bdf)
c        -2.73513144893560    1.34796287288189    1.38195793247956
c        -2.66914132578718    0.21442524056124    0.57178530882695
c        -1.52158847179612   -0.10457568369933   -0.15215021533754
c        -0.44490783005171    0.75858626053125   -0.14461605740846
c        -0.49924631819315    1.94295079221598    0.59198763527572
c        -1.64726629033245    2.19376058157327    1.34270013774884
h        -1.77376182532389    3.10630412371527    1.90500966485232
h        -1.61861112466486   -0.95872956744592   -0.80316121383046
h         0.43901673652335    0.55809816713196   -0.73167093347184
c         0.55315017198126    2.95903121934119    0.54276570485210
h         1.39577840092701    2.80572025861940   -0.12243920397318
c         0.64247863027879    4.11396717074289    1.21379424503837
h        -3.61277635131027    1.69575135266349    1.90606285597665
c        -3.84475509406640   -0.67867678493998    0.67812868989017
o        -3.79766405056873   -1.76824837787924   -0.09321493344751
c        -4.90313828811076   -2.64038920569087   -0.30214419212306
h        -5.02379000347139   -3.24666343480858    0.59160685572819
h        -4.68878118991709   -3.29016596330608   -1.15329243513841
h        -5.81022773798234   -2.07776425585990   -0.53285962498767
o        -4.81155231319913   -0.46409161499171    1.38066618572556
c        -0.26196077802994    4.71541613282989    2.21048993252656
h         1.45839814566957    4.80015876125975    1.04309108850442
c        -1.53569552680128    5.36441796328215    1.79145502609197
o         0.03149332331012    4.69132264444705    3.39516306610686
c        -1.72337346324576    5.81692472455309    0.48451291780523
c        -2.91361635281714    6.41538004691251    0.12032063082034
c        -3.95741314858971    6.48961472119370    1.02935834343031
c        -3.79287506813225    6.01998187809181    2.33023634737127
c        -2.58261699216705    5.43272093359879    2.69997066763616
h        -2.46410165941372    5.15322373723155    3.73575211170478
h        -4.92382797809198    6.73321319379614    0.61830457864171
h        -1.02030016211488    5.77554553877772   -0.33221653758520
h        -2.99260133325247    6.70198778197123   -0.91753805241585
o        -4.77720393392420    5.93458404303114    3.25885757691573
c        -5.80260479188606    6.89440607733211    3.11314785095924
h        -5.32697056153994    7.84088012889498    2.83878403892197
h        -6.28164426515307    6.94656039138239    4.08908821441364
h        -6.49301267961555    6.63071153964146    2.30619005154328
38
 energy: -62.927008831049 gnorm: 0.079616308201 xtb: 6.4.1 (afa7bdf)
c        -2.61967945613879    1.24276654053468    1.72199145199551
c        -2.70857528365143    0.22191813521154    0.77562574232767
c        -1.69119204017189    0.14175205306822   -0.17370378771275
c        -0.67815943475992    1.07878115484243   -0.16432713123582
c        -0.62427378909116    2.08951082076115    0.79680703536057
c        -1.59610831673089    2.16335008781358    1.79405830228936
h        -1.51639206846388    2.87384767355072    2.60261711847531
h        -1.70728446280605   -0.55822587595151   -0.99381324344207
h         0.05506477792209    1.06825870143871   -0.95705853239255
c         0.48238773730307    3.03579525422744    0.64772111667868
h         1.17403688741294    2.69069108875325   -0.11290277059234
c         0.77819043444176    4.20036790746215    1.23798137484965
h        -3.47109713591586    1.21093741486139    2.38529999639680
c        -3.92655881605746   -0.60880382037682    0.64362166015992
o        -3.85091693138186   -1.42503071059942   -0.41108531273809
c        -4.92207676742174   -2.34857207948847   -0.57246157355236
h        -5.91391113000074   -1.99223466558020   -0.30750033057410
h        -4.69019040737474   -3.16868284525041    0.11037016244367
h        -4.91571238165049   -2.82370559090742   -1.55571909701405
o        -4.92036075245989   -0.49752606335973    1.33229980722984
c        -0.11347362199362    4.91394855270063    2.17012490678080
h         1.64997631324584    4.79407573391552    1.00727919364782
c        -1.45250775743781    5.40706579860936    1.74232042448915
o         0.28366407848589    5.10330862385512    3.30879544347144
c        -1.74629573828840    5.45436484691322    0.37867297528374
c        -3.05813637181971    5.65485677946438   -0.00387114362917
c        -4.03288630950321    5.90927038942735    0.94823615994714
c        -3.73052574873236    5.90432756500576    2.30781880062794
c        -2.46793609792104    5.44822434262779    2.68747738194665
h        -2.35023454694091    5.21968338889813    3.73577271184980
h        -5.01683691312634    6.13624504134602    0.57062958891704
h        -0.91744784624516    5.27788572000069   -0.28836341957793
h        -3.26167329020236    5.66712925713447   -1.06403874682374
o        -4.59326708486749    6.08103015655150    3.33883142272733
c        -5.75123974624100    6.85950073178152    3.12199174064458
h        -5.49267848372767    7.83340247008795    2.69540291336092
h        -6.30001110556594    6.98951709662624    4.05290753693103
h        -6.41283894599429    6.34881989915782    2.41568420601522
38
 energy: -62.927994538885 gnorm: 0.080541050899 xtb: 6.4.1 (afa7bdf)
c        -2.47172141398643    1.17567632033502    1.88675906426189
c        -2.77803473795792    0.50203251565683    0.70438102469782
c        -2.03857021138394    0.65223151525654   -0.46752083281356
c        -0.87824443600864    1.39804098964720   -0.42558530564177
c        -0.52913028946837    2.05277601583784    0.75665751520016
c        -1.30696925688818    1.91281072300558    1.90548328178312
h        -1.14939320358167    2.53940052832699    2.77005469098435
h        -2.24610750245881    0.09740462660796   -1.36857734358240
h        -0.32726488079364    1.57448763780219   -1.33741836166423
c         0.66902870108897    2.89348494578970    0.75469589385155
h         1.58893234822049    2.45320267357887    0.38597803598977
c         0.82978230908174    4.01605437994659    1.46612537204168
h        -3.10152290365845    1.19358710378722    2.76364704251657
c        -3.93319094986400   -0.42349384780936    0.70914015176845
o        -3.83737665624511   -1.18712928663293   -0.38266349947921
c        -4.87154171427200   -2.11059337314441   -0.70526389611474
h        -5.11526659525719   -2.08965622435532   -1.76407266989395
h        -5.78034174841368   -1.88325584118516   -0.14400436157692
h        -4.58237581399066   -3.12476844631767   -0.42168021114533
o        -4.80061387790811   -0.58062827570314    1.54411840603384
c        -0.08371849507223    4.91790830172080    2.19092153121200
h         1.85092852185099    4.36667829272716    1.45931718339239
c        -1.51007271227327    5.04851981260006    1.78147300259445
o         0.44327262427211    5.52626631638792    3.10870532899056
c        -1.97350760410379    4.83061468744276    0.48307840704417
c        -3.24141815355707    5.20082036936455    0.07957678519225
c        -4.10037559373251    5.78564099839079    0.99693663177982
c        -3.66157516994231    6.04034229317970    2.29404605569015
c        -2.38785533961605    5.62831992599641    2.68670227028577
h        -2.00670798230430    5.86146879529863    3.66923780640398
h        -5.09496004024411    6.04287186985544    0.66998538358055
h        -1.32119928009756    4.26612282546373   -0.16415733501416
h        -3.64725786236431    4.93229054177508   -0.88412397269038
o        -4.49554656287294    6.43848019851820    3.28627156118626
c        -5.85751960567535    6.59592780276224    2.94837175779119
h        -6.10304681657042    7.31663987190289    2.16249195754131
h        -6.32059786353017    6.94718476596330    3.86860844366284
h        -6.34299413969001    5.64597868818029    2.70487656043465
38
 energy: -62.917567395134 gnorm: 0.071030044935 xtb: 6.4.1 (afa7bdf)
c        -2.32097507923388    0.89407685357166    1.88090934915861
c        -2.72482921713211    0.48896505636278    0.60873475715848
c        -2.06140593402824    1.02119382318081   -0.49549522838343
c        -0.90511049790206    1.76323002136651   -0.36622946914212
c        -0.51769917189144    2.14785479637991    0.91838457250220
c        -1.23079854779522    1.72290218042948    2.03879932430053
h        -0.92260385811226    1.89749962089001    3.05833873433731
h        -2.45302203997113    0.79558457837712   -1.47454827037813
h        -0.39962959273801    2.19416563105085   -1.21766066881124
c         0.69585430622777    2.96407527430111    0.97714401774364
h         1.50894615424717    2.55654111325990    0.38653272493619
c         0.94094593547900    4.12222024884511    1.60225699122989
h        -2.84552496832910    0.36646562182131    2.66345466131680
c        -3.90191855630469   -0.40840851828457    0.59497910103793
o        -4.12238921899524   -0.96804218341598   -0.59773110996504
c        -5.20499513065546   -1.88778322763811   -0.68935640091816