      -----------------------------------------------------------      
     |                   =====================                   |     
     |                           x T B                           |     
     |                   =====================                   |     
     |                         S. Grimme                         |     
     |          Mulliken Center for Theoretical Chemistry        |     
     |                    University of Bonn                     |     
      -----------------------------------------------------------      

   * xtb version 6.4.1 (afa7bdf) compiled by 'ehlert@majestix' on 2021-06-10

   xtb is free software: you can redistribute it and/or modify it under
   the terms of the GNU Lesser General Public License as published by
   the Free Software Foundation, either version 3 of the License, or
   (at your option) any later version.
   
   xtb is distributed in the hope that it will be useful,
   but WITHOUT ANY WARRANTY; without even the implied warranty of
   MERCHANTABILITY or FITNESS FOR A PARTICULAR PURPOSE.  See the
   GNU Lesser General Public License for more details.
   
   Cite this work as:
   * C. Bannwarth, E. Caldeweyher, S. Ehlert, A. Hansen, P. Pracht,
     J. Seibert, S. Spicher, S. Grimme, WIREs Comput. Mol. Sci., 2020, 11,
     e01493. DOI: 10.1002/wcms.1493
   
   for GFN2-xTB:
   * C. Bannwarth, S. Ehlert and S. Grimme., J. Chem. Theory Comput., 2019,
     15, 1652-1671. DOI: 10.1021/acs.jctc.8b01176
   for GFN1-xTB:
   * S. Grimme, C. Bannwarth, P. Shushkov, J. Chem. Theory Comput., 2017,
     13, 1989-2009. DOI: 10.1021/acs.jctc.7b00118
   for GFN0-xTB:
   * P. Pracht, E. Caldeweyher, S. Ehlert, S. Grimme, ChemRxiv, 2019, preprint.
     DOI: 10.26434/chemrxiv.8326202.v1
   for GFN-FF:
   * S. Spicher and S. Grimme, Angew. Chem. Int. Ed., 2020, 59, 15665-15673.
     DOI: 10.1002/anie.202004239
   
   for DFT-D4:
   * E. Caldeweyher, C. Bannwarth and S. Grimme, J. Chem. Phys., 2017,
     147, 034112. DOI: 10.1063/1.4993215
   * E. Caldeweyher, S. Ehlert, A. Hansen, H. Neugebauer, S. Spicher,
     C. Bannwarth and S. Grimme, J. Chem. Phys., 2019, 150, 154122.
     DOI: 10.1063/1.5090222
   * E. Caldeweyher, J.-M. Mewes, S. Ehlert and S. Grimme, Phys. Chem. Chem. Phys.
     2020, 22, 8499-8512. DOI: 10.1039/D0CP00502A
   
   for sTDA-xTB:
   * S. Grimme and C. Bannwarth, J. Chem. Phys., 2016, 145, 054103.
     DOI: 10.1063/1.4959605
   
   in the mass-spec context:
   * V. Asgeirsson, C. Bauer and S. Grimme, Chem. Sci., 2017, 8, 4879.
     DOI: 10.1039/c7sc00601b
   * J. Koopman and S. Grimme, ACS Omega 2019, 4, 12, 15120-15133.
     DOI: 10.1021/acsomega.9b02011
   
   for metadynamics refer to:
   * S. Grimme, J. Chem. Theory Comput., 2019, 155, 2847-2862
     DOI: 10.1021/acs.jctc.9b00143
   
   for SPH calculations refer to:
   * S. Spicher and S. Grimme, J. Chem. Theory Comput., 2021, 17, 1701-1714
     DOI: 10.1021/acs.jctc.0c01306
   
   with help from (in alphabetical order)
   P. Atkinson, C. Bannwarth, F. Bohle, G. Brandenburg, E. Caldeweyher
   M. Checinski, S. Dohm, S. Ehlert, S. Ehrlich, I. Gerasimov, J. Koopman
   C. Lavigne, S. Lehtola, F. März, M. Müller, F. Musil, H. Neugebauer
   J. Pisarek, C. Plett, P. Pracht, J. Seibert, P. Shushkov, S. Spicher
   M. Stahn, M. Steiner, T. Strunk, J. Stückrath, T. Rose, and J. Unsleber
   
 * started run on 2022/02/28 at 12:01:21.629     

           -------------------------------------------------
          |                Calculation Setup                |
           -------------------------------------------------

          program call               : xtb Aldol-OH.xyz --opt --alpb thf
          hostname                   : clu
          coordinate file            : Aldol-OH.xyz
          omp threads                :                     4
          number of atoms            :                    41
          number of electrons        :                   120
          charge                     :                     0
          spin                       :                   0.0
          first test random number   :      0.29827112162162

   ID    Z sym.   atoms
    1    6 C      1-6, 8, 12, 18, 19, 21, 23, 25-28, 33, 35
    2    8 O      7, 17, 20, 34, 39
    3    1 H      9-11, 13-16, 22, 24, 29-32, 36-38, 40, 41

           -------------------------------------------------
          |                 G F N 2 - x T B                 |
           -------------------------------------------------

        Reference                      10.1021/acs.jctc.8b01176
      * Hamiltonian:
        H0-scaling (s, p, d)           1.850000    2.230000    2.230000
        zeta-weighting                 0.500000
      * Dispersion:
        s8                             2.700000
        a1                             0.520000
        a2                             5.000000
        s9                             5.000000
      * Repulsion:
        kExp                           1.500000    1.000000
        rExp                           1.000000
      * Coulomb:
        alpha                          2.000000
        third order                    shell-resolved
        anisotropic                    true
        a3                             3.000000
        a5                             4.000000
        cn-shift                       1.200000
        cn-exp                         4.000000
        max-rad                        5.000000

      * Solvation model:               ALPB
        Solvent                        thf
        Parameter file                 internal GFN2-xTB/ALPB
        Dielectric constant                7.6000E+00
        Reference state                gsolv [1 M gas/solution]
        Free energy shift                  5.3248E-03 Eh       3.3414E+00 kcal/mol
        Temperature                        2.9815E+02 K
        Density                            8.8300E-01 kg/L
        Solvent mass                       7.2106E+01 g/mol
        Interaction kernel             P16
        Born radius scaling (c1)           1.7311E+00
        Born radii integrator          GBOBC
        Born offset                        0.0000E+00 a0       0.0000E+00 AA
        H-bond correction              true
        Ion screening                  false
        Surface tension                    1.0000E-05 Eh       1.5569E+01 dyn/cm
        Grid points                               230 per atom

          ...................................................
          :                      SETUP                      :
          :.................................................:
          :  # basis functions                 110          :
          :  # atomic orbitals                 110          :
          :  # shells                           64          :
          :  # electrons                       120          :
          :  max. iterations                   250          :
          :  Hamiltonian                  GFN2-xTB          :
          :  restarted?                      false          :
          :  GBSA solvation                   true          :
          :  PC potential                    false          :
          :  electronic temp.          300.0000000     K    :
          :  accuracy                    1.0000000          :
          :  -> integral cutoff          0.2500000E+02      :
          :  -> integral neglect         0.1000000E-07      :
          :  -> SCF convergence          0.1000000E-05 Eh   :
          :  -> wf. convergence          0.1000000E-03 e    :
          :  Broyden damping             0.4000000          :
          ...................................................

 iter      E             dE          RMSdq      gap      omega  full diag
   1    -68.8260837 -0.688261E+02  0.504E+00    2.96       0.0  T
   2    -68.9133833 -0.872996E-01  0.273E+00    2.69       1.0  T
   3    -68.9070486  0.633474E-02  0.129E+00    2.91       1.0  T
   4    -68.9250539 -0.180053E-01  0.270E-01    2.75       1.0  T
   5    -68.9264440 -0.139016E-02  0.965E-02    2.78       1.0  T
   6    -68.9265654 -0.121353E-03  0.506E-02    2.78       1.0  T
   7    -68.9265778 -0.124123E-04  0.171E-02    2.78       1.0  T
   8    -68.9265800 -0.218578E-05  0.671E-03    2.78       2.3  T
   9    -68.9265805 -0.489202E-06  0.274E-03    2.78       5.7  T
  10    -68.9265805 -0.552941E-07  0.147E-03    2.78      10.6  T
  11    -68.9265805 -0.151283E-07  0.694E-04    2.78      22.5  T
  12    -68.9265805 -0.509496E-08  0.223E-04    2.78      69.9  T

   *** convergence criteria satisfied after 12 iterations ***

         #    Occupation            Energy/Eh            Energy/eV
      -------------------------------------------------------------
         1        2.0000           -0.7433449             -20.2274
       ...           ...                  ...                  ...
        54        2.0000           -0.4185255             -11.3887
        55        2.0000           -0.4173374             -11.3563
        56        2.0000           -0.4156947             -11.3116
        57        2.0000           -0.4135527             -11.2533
        58        2.0000           -0.4111981             -11.1893
        59        2.0000           -0.4004735             -10.8974
        60        2.0000           -0.3915636             -10.6550 (HOMO)
        61                         -0.2894831              -7.8772 (LUMO)
        62                         -0.2784922              -7.5782
        63                         -0.2375247              -6.4634
        64                         -0.2331540              -6.3444
        65                         -0.2022456              -5.5034
       ...                                ...                  ...
       110                          0.6540837              17.7985
      -------------------------------------------------------------
                  HL-Gap            0.1020805 Eh            2.7778 eV
             Fermi-level           -0.3405233 Eh           -9.2661 eV

 SCC (total)                   0 d,  0 h,  0 min,  0.117 sec
 SCC setup                      ...        0 min,  0.002 sec (  2.056%)
 Dispersion                     ...        0 min,  0.002 sec (  1.603%)
 classical contributions        ...        0 min,  0.000 sec (  0.110%)
 integral evaluation            ...        0 min,  0.008 sec (  6.866%)
 iterations                     ...        0 min,  0.086 sec ( 73.227%)
 molecular gradient             ...        0 min,  0.018 sec ( 15.533%)
 printout                       ...        0 min,  0.001 sec (  0.527%)

         :::::::::::::::::::::::::::::::::::::::::::::::::::::
         ::                     SUMMARY                     ::
         :::::::::::::::::::::::::::::::::::::::::::::::::::::
         :: total energy             -68.068020205567 Eh    ::
         :: total w/o Gsasa/hb       -68.039277211909 Eh    ::
         :: gradient norm              0.059562315300 Eh/a0 ::
         :: HOMO-LUMO gap              2.777751627825 eV    ::
         ::.................................................::
         :: SCC energy               -68.926580533931 Eh    ::
         :: -> isotropic ES            0.127084517419 Eh    ::
         :: -> anisotropic ES          0.001184414952 Eh    ::
         :: -> anisotropic XC          0.020499107640 Eh    ::
         :: -> dispersion             -0.039056946976 Eh    ::
         :: -> Gsolv                  -0.040243886391 Eh    ::
         ::    -> Gelec               -0.011500892732 Eh    ::
         ::    -> Gsasa               -0.029003484152 Eh    ::
         ::    -> Ghb                 -0.005064324951 Eh    ::
         ::    -> Gshift               0.005324815444 Eh    ::
         :: repulsion energy           0.858977034907 Eh    ::
         :: add. restraining           0.000000000000 Eh    ::
         :: total charge               0.000000000000 e     ::
         :::::::::::::::::::::::::::::::::::::::::::::::::::::

      ----------------------------------------------------------- 
     |                   =====================                   |
     |                        A N C O P T                        |
     |                   =====================                   |
     |               Approximate Normal Coordinate               |
     |                Rational Function Optimizer                |
      ----------------------------------------------------------- 

          ...................................................
          :                      SETUP                      :
          :.................................................:
          :   optimization level            normal          :
          :   max. optcycles                   200          :
          :   ANC micro-cycles                  20          :
          :   degrees of freedom               117          :
          :.................................................:
          :   RF solver                   davidson          :
          :   write xtbopt.log                true          :
          :   linear?                        false          :
          :   energy convergence         0.5000000E-05 Eh   :
          :   grad. convergence          0.1000000E-02 Eh/α :
          :   maximium RF displ.         1.0000000          :
          :   Hlow (freq-cutoff)         0.1000000E-01      :
          :   Hmax (freq-cutoff)         5.0000000          :
          :   S6 in model hess.         20.0000000          :
          ...................................................

generating ANC from model Hessian ...
Using Lindh-Hessian (1995)
 Shifting diagonal of input Hessian by   9.831575834784905E-003
 Lowest  eigenvalues of input Hessian
    0.000000    0.000000    0.000000    0.000000    0.000000    0.000000
    0.010000    0.010053    0.010471    0.010707    0.011580    0.012298
    0.012897    0.013712    0.014095    0.015049    0.015468    0.015849
 Highest eigenvalues
    1.893398    1.949892    1.959638    2.044375    2.098027    2.317420
 

........................................................................
.............................. CYCLE    1 ..............................
........................................................................
   1    -68.9265805 -0.689266E+02  0.118E-04    2.78       0.0  T
   2    -68.9265805 -0.802487E-10  0.775E-05    2.78     201.5  T
   3    -68.9265805 -0.377156E-10  0.540E-05    2.78     289.0  T
     SCC iter.                  ...        0 min,  0.023 sec
     gradient                   ...        0 min,  0.018 sec
 * total energy  :   -68.0680202 Eh     change       -0.4961862E-09 Eh
   gradient norm :     0.0595626 Eh/α   predicted     0.0000000E+00 (-100.00%)
   displ. norm   :     0.2004448 α      lambda       -0.7210987E-02
   maximum displ.:     0.0634310 α      in ANC's #63, #11, #16, ...

........................................................................
.............................. CYCLE    2 ..............................
........................................................................
   1    -68.9688255 -0.689688E+02  0.152E-01    2.83       0.0  T
   2    -68.9688675 -0.420480E-04  0.896E-02    2.82       1.0  T
   3    -68.9688573  0.102878E-04  0.329E-02    2.82       1.0  T
   4    -68.9688750 -0.177750E-04  0.667E-03    2.82       2.3  T
   5    -68.9688758 -0.727969E-06  0.333E-03    2.82       4.7  T
   6    -68.9688758 -0.508556E-07  0.162E-03    2.82       9.6  T
   7    -68.9688758 -0.165629E-07  0.486E-04    2.82      32.1  T
   8    -68.9688758 -0.155487E-08  0.229E-04    2.82      68.3  T
     SCC iter.                  ...        0 min,  0.056 sec
     gradient                   ...        0 min,  0.018 sec
 * total energy  :   -68.0726916 Eh     change       -0.4671397E-02 Eh
   gradient norm :     0.0218569 Eh/α   predicted    -0.3750495E-02 ( -19.71%)
   displ. norm   :     0.1661587 α      lambda       -0.1429350E-02
   maximum displ.:     0.0851967 α      in ANC's #11, #12, #16, ...

........................................................................
.............................. CYCLE    3 ..............................
........................................................................
   1    -68.9841957 -0.689842E+02  0.881E-02    2.82       0.0  T
   2    -68.9842149 -0.192151E-04  0.510E-02    2.82       1.0  T
   3    -68.9842128  0.209227E-05  0.194E-02    2.82       1.0  T
   4    -68.9842172 -0.440475E-05  0.451E-03    2.82       3.5  T
   5    -68.9842176 -0.382336E-06  0.192E-03    2.82       8.1  T
   6    -68.9842176 -0.241329E-07  0.114E-03    2.82      13.7  T
   7    -68.9842176 -0.661061E-08  0.313E-04    2.82      49.8  T
   8    -68.9842176 -0.107667E-08  0.156E-04    2.82      99.9  T
     SCC iter.                  ...        0 min,  0.056 sec
     gradient                   ...        0 min,  0.018 sec
 * total energy  :   -68.0734983 Eh     change       -0.8067451E-03 Eh
   gradient norm :     0.0080234 Eh/α   predicted    -0.7346633E-03 (  -8.93%)
   displ. norm   :     0.0949687 α      lambda       -0.1935092E-03
   maximum displ.:     0.0455271 α      in ANC's #11, #3, #6, ...

........................................................................
.............................. CYCLE    4 ..............................
........................................................................
   1    -68.9844540 -0.689845E+02  0.335E-02    2.82       0.0  T
   2    -68.9844572 -0.320302E-05  0.198E-02    2.82       1.0  T
   3    -68.9844569  0.319912E-06  0.705E-03    2.82       2.2  T
   4    -68.9844574 -0.519406E-06  0.207E-03    2.82       7.5  T
   5    -68.9844575 -0.102144E-06  0.574E-04    2.82      27.2  T
   6    -68.9844575 -0.286268E-08  0.345E-04    2.82      45.3  T
     SCC iter.                  ...        0 min,  0.043 sec
     gradient                   ...        0 min,  0.018 sec
 * total energy  :   -68.0736226 Eh     change       -0.1242113E-03 Eh
   gradient norm :     0.0035275 Eh/α   predicted    -0.9762994E-04 ( -21.40%)
   displ. norm   :     0.1011459 α      lambda       -0.9665282E-04
   maximum displ.:     0.0580127 α      in ANC's #3, #11, #6, ...

........................................................................
.............................. CYCLE    5 ..............................
........................................................................
   1    -68.9833896 -0.689834E+02  0.304E-02    2.81       0.0  T
   2    -68.9833910 -0.140096E-05  0.181E-02    2.81       1.0  T
   3    -68.9833906  0.345433E-06  0.490E-03    2.82       3.2  T
   4    -68.9833911 -0.461792E-06  0.142E-03    2.82      11.0  T
   5    -68.9833911 -0.481766E-07  0.423E-04    2.82      36.9  T
   6    -68.9833911 -0.137517E-08  0.241E-04    2.82      64.8  T
     SCC iter.                  ...        0 min,  0.043 sec
     gradient                   ...        0 min,  0.018 sec
 * total energy  :   -68.0736829 Eh     change       -0.6030803E-04 Eh
   gradient norm :     0.0025606 Eh/α   predicted    -0.4882684E-04 ( -19.04%)
   displ. norm   :     0.0786044 α      lambda       -0.3844117E-04
   maximum displ.:     0.0561137 α      in ANC's #3, #6, #9, ...

........................................................................
.............................. CYCLE    6 ..............................
........................................................................
   1    -68.9829333 -0.689829E+02  0.230E-02    2.81       0.0  T
   2    -68.9829334 -0.147564E-06  0.136E-02    2.81       1.1  T
   3    -68.9829334  0.318918E-07  0.150E-03    2.81      10.4  T
   4    -68.9829335 -0.640829E-07  0.493E-04    2.81      31.6  T
   5    -68.9829335 -0.274007E-08  0.257E-04    2.81      60.8  T
     SCC iter.                  ...        0 min,  0.037 sec
     gradient                   ...        0 min,  0.018 sec
 * total energy  :   -68.0737142 Eh     change       -0.3130162E-04 Eh
   gradient norm :     0.0026057 Eh/α   predicted    -0.1936349E-04 ( -38.14%)
   displ. norm   :     0.1086517 α      lambda       -0.4737709E-04
   maximum displ.:     0.0775552 α      in ANC's #3, #6, #2, ...

........................................................................
.............................. CYCLE    7 ..............................
........................................................................
   1    -68.9830064 -0.689830E+02  0.331E-02    2.81       0.0  T
   2    -68.9830067 -0.295362E-06  0.195E-02    2.81       1.0  T
   3    -68.9830066  0.352855E-07  0.182E-03    2.81       8.6  T
   4    -68.9830067 -0.877260E-07  0.708E-04    2.81      22.0  T
   5    -68.9830067 -0.807430E-08  0.354E-04    2.81      44.1  T
     SCC iter.                  ...        0 min,  0.037 sec
     gradient                   ...        0 min,  0.018 sec
 * total energy  :   -68.0737543 Eh     change       -0.4009745E-04 Eh
   gradient norm :     0.0021028 Eh/α   predicted    -0.2396871E-04 ( -40.22%)
   displ. norm   :     0.1498845 α      lambda       -0.5621217E-04
   maximum displ.:     0.1061564 α      in ANC's #3, #2, #6, ...

........................................................................
.............................. CYCLE    8 ..............................
........................................................................
   1    -68.9833616 -0.689834E+02  0.461E-02    2.81       0.0  T
   2    -68.9833620 -0.418191E-06  0.271E-02    2.81       1.0  T
   3    -68.9833619  0.944589E-07  0.248E-03    2.81       6.3  T
   4    -68.9833621 -0.191221E-06  0.900E-04    2.81      17.3  T
   5    -68.9833621 -0.115772E-07  0.457E-04    2.81      34.2  T
     SCC iter.                  ...        0 min,  0.038 sec
     gradient                   ...        0 min,  0.018 sec
 * total energy  :   -68.0738027 Eh     change       -0.4847222E-04 Eh
   gradient norm :     0.0023033 Eh/α   predicted    -0.2874083E-04 ( -40.71%)
   displ. norm   :     0.1861709 α      lambda       -0.6383773E-04
   maximum displ.:     0.1311301 α      in ANC's #3, #2, #7, ...

........................................................................
.............................. CYCLE    9 ..............................
........................................................................
   1    -68.9836379 -0.689836E+02  0.583E-02    2.81       0.0  T
   2    -68.9836383 -0.423046E-06  0.344E-02    2.81       1.0  T
   3    -68.9836381  0.187249E-06  0.309E-03    2.81       5.0  T
   4    -68.9836385 -0.347583E-06  0.962E-04    2.81      16.2  T
   5    -68.9836385 -0.601412E-08  0.521E-04    2.81      30.0  T
     SCC iter.                  ...        0 min,  0.036 sec
     gradient                   ...        0 min,  0.018 sec
 * total energy  :   -68.0738599 Eh     change       -0.5711395E-04 Eh
   gradient norm :     0.0027292 Eh/α   predicted    -0.3302757E-04 ( -42.17%)
   displ. norm   :     0.2341159 α      lambda       -0.7940613E-04
   maximum displ.:     0.1632100 α      in ANC's #3, #2, #7, ...

........................................................................
.............................. CYCLE   10 ..............................
........................................................................
   1    -68.9836449 -0.689836E+02  0.754E-02    2.81       0.0  T
   2    -68.9836455 -0.537179E-06  0.444E-02    2.81       1.0  T
   3    -68.9836452  0.309887E-06  0.384E-03    2.81       4.1  T
   4    -68.9836457 -0.574002E-06  0.114E-03    2.81      13.7  T
   5    -68.9836457 -0.197987E-08  0.566E-04    2.81      27.6  T
   6    -68.9836457 -0.327907E-08  0.179E-04    2.81      87.1  T
     SCC iter.                  ...        0 min,  0.048 sec
     gradient                   ...        0 min,  0.019 sec
 * total energy  :   -68.0739327 Eh     change       -0.7289365E-04 Eh
   gradient norm :     0.0027005 Eh/α   predicted    -0.4188424E-04 ( -42.54%)
   displ. norm   :     0.3147959 α      lambda       -0.1082712E-03
   maximum displ.:     0.2167132 α      in ANC's #3, #2, #7, ...

........................................................................
.............................. CYCLE   11 ..............................
........................................................................
   1    -68.9831507 -0.689832E+02  0.104E-01    2.81       0.0  T
   2    -68.9831517 -0.964994E-06  0.615E-02    2.81       1.0  T
   3    -68.9831511  0.561527E-06  0.513E-03    2.81       3.0  T
   4    -68.9831522 -0.105140E-05  0.152E-03    2.81      10.3  T
   5    -68.9831522 -0.151849E-08  0.705E-04    2.81      22.1  T
   6    -68.9831522 -0.632502E-08  0.213E-04    2.81      73.4  T
     SCC iter.                  ...        0 min,  0.042 sec
     gradient                   ...        0 min,  0.018 sec
 * total energy  :   -68.0740326 Eh     change       -0.9981712E-04 Eh
   gradient norm :     0.0025558 Eh/α   predicted    -0.5950061E-04 ( -40.39%)
   displ. norm   :     0.4354749 α      lambda       -0.1535745E-03
   maximum displ.:     0.2973833 α      in ANC's #3, #2, #7, ...

........................................................................
.............................. CYCLE   12 ..............................
........................................................................
   1    -68.9817024 -0.689817E+02  0.148E-01    2.81       0.0  T
   2    -68.9817044 -0.196601E-05  0.873E-02    2.81       1.0  T
   3    -68.9817033  0.101080E-05  0.702E-03    2.81       2.2  T
   4    -68.9817053 -0.197840E-05  0.211E-03    2.81       7.4  T
   5    -68.9817053 -0.534780E-08  0.933E-04    2.81      16.7  T
   6    -68.9817053 -0.818366E-08  0.318E-04    2.81      49.1  T
     SCC iter.                  ...        0 min,  0.042 sec
     gradient                   ...        0 min,  0.018 sec
 * total energy  :   -68.0741658 Eh     change       -0.1332220E-03 Eh
   gradient norm :     0.0040225 Eh/α   predicted    -0.9135002E-04 ( -31.43%)
   displ. norm   :     0.4997753 α      lambda       -0.1773426E-03
   maximum displ.:     0.3436395 α      in ANC's #3, #2, #7, ...

........................................................................
.............................. CYCLE   13 ..............................
........................................................................
   1    -68.9798393 -0.689798E+02  0.174E-01    2.81       0.0  T
   2    -68.9798419 -0.259879E-05  0.102E-01    2.81       1.0  T
   3    -68.9798407  0.117592E-05  0.782E-03    2.81       2.0  T
   4    -68.9798431 -0.245797E-05  0.241E-03    2.81       6.5  T
   5    -68.9798431 -0.761625E-08  0.990E-04    2.81      15.8  T
   6    -68.9798432 -0.841537E-08  0.325E-04    2.81      48.0  T
     SCC iter.                  ...        0 min,  0.042 sec
     gradient                   ...        0 min,  0.018 sec
 * total energy  :   -68.0743075 Eh     change       -0.1417326E-03 Eh
   gradient norm :     0.0069130 Eh/α   predicted    -0.1108241E-03 ( -21.81%)
   displ. norm   :     0.4894935 α      lambda       -0.2145764E-03
   maximum displ.:     0.3404500 α      in ANC's #3, #2, #7, ...

........................................................................
.............................. CYCLE   14 ..............................
........................................................................
   1    -68.9795369 -0.689795E+02  0.174E-01    2.81       0.0  T
   2    -68.9795392 -0.230700E-05  0.102E-01    2.81       1.0  T
   3    -68.9795385  0.771711E-06  0.707E-03    2.81       2.2  T
   4    -68.9795404 -0.196286E-05  0.235E-03    2.81       6.6  T
   5    -68.9795404 -0.631920E-08  0.957E-04    2.81      16.3  T
   6    -68.9795405 -0.915971E-08  0.301E-04    2.81      51.9  T
     SCC iter.                  ...        0 min,  0.042 sec
     gradient                   ...        0 min,  0.018 sec
 * total energy  :   -68.0744848 Eh     change       -0.1772670E-03 Eh
   gradient norm :     0.0085249 Eh/α   predicted    -0.1330035E-03 ( -24.97%)
   displ. norm   :     0.4342038 α      lambda       -0.2929633E-03
   maximum displ.:     0.2992583 α      in ANC's #3, #4, #2, ...

........................................................................
.............................. CYCLE   15 ..............................
........................................................................
   1    -68.9829126 -0.689829E+02  0.159E-01    2.80       0.0  T
   2    -68.9829152 -0.260490E-05  0.936E-02    2.80       1.0  T
   3    -68.9829142  0.105493E-05  0.762E-03    2.81       2.0  T
   4    -68.9829163 -0.215171E-05  0.227E-03    2.81       6.9  T
   5    -68.9829164 -0.149467E-07  0.132E-03    2.81      11.9  T
   6    -68.9829164 -0.140155E-07  0.366E-04    2.81      42.6  T
   7    -68.9829164 -0.132520E-08  0.140E-04    2.81     111.2  T
     SCC iter.                  ...        0 min,  0.053 sec
     gradient                   ...        0 min,  0.018 sec
 * total energy  :   -68.0746982 Eh     change       -0.2134589E-03 Eh
   gradient norm :     0.0071723 Eh/α   predicted    -0.1741007E-03 ( -18.44%)
   displ. norm   :     0.6431240 α      lambda       -0.2813096E-03
   maximum displ.:     0.4413560 α      in ANC's #3, #4, #2, ...

........................................................................
.............................. CYCLE   16 ..............................
........................................................................
   1    -68.9765891 -0.689766E+02  0.240E-01    2.79       0.0  T
   2    -68.9765962 -0.706656E-05  0.141E-01    2.80       1.0  T
   3    -68.9765930  0.321977E-05  0.125E-02    2.80       1.2  T
   4    -68.9765989 -0.596126E-05  0.348E-03    2.80       4.5  T
   5    -68.9765990 -0.317778E-07  0.191E-03    2.80       8.2  T
   6    -68.9765990 -0.200864E-07  0.546E-04    2.80      28.6  T
   7    -68.9765990 -0.471157E-08  0.204E-04    2.80      76.6  T
     SCC iter.                  ...        0 min,  0.049 sec
     gradient                   ...        0 min,  0.018 sec
 * total energy  :   -68.0748599 Eh     change       -0.1616259E-03 Eh
   gradient norm :     0.0131023 Eh/α   predicted    -0.1988324E-03 (  23.02%)
   displ. norm   :     0.2758426 α      lambda       -0.4334422E-03
   maximum displ.:     0.1474468 α      in ANC's #4, #3, #11, ...

........................................................................
.............................. CYCLE   17 ..............................
........................................................................
   1    -68.9843634 -0.689844E+02  0.106E-01    2.82       0.0  T
   2    -68.9843678 -0.446569E-05  0.628E-02    2.81       1.0  T
   3    -68.9843650  0.278552E-05  0.108E-02    2.82       1.5  T
   4    -68.9843690 -0.392725E-05  0.241E-03    2.81       6.5  T
   5    -68.9843690 -0.358196E-07  0.142E-03    2.81      11.0  T
   6    -68.9843690 -0.183414E-07  0.609E-04    2.81      25.6  T
   7    -68.9843690 -0.187474E-08  0.191E-04    2.81      82.0  T
     SCC iter.                  ...        0 min,  0.049 sec
     gradient                   ...        0 min,  0.018 sec
 * total energy  :   -68.0750858 Eh     change       -0.2258906E-03 Eh
   gradient norm :     0.0064664 Eh/α   predicted    -0.2332120E-03 (   3.24%)
   displ. norm   :     0.4229911 α      lambda       -0.2040702E-03
   maximum displ.:     0.2709452 α      in ANC's #3, #4, #7, ...

........................................................................
.............................. CYCLE   18 ..............................
........................................................................
   1    -68.9809635 -0.689810E+02  0.167E-01    2.80       0.0  T
   2    -68.9809664 -0.293528E-05  0.980E-02    2.80       1.0  T
   3    -68.9809659  0.500798E-06  0.649E-03    2.80       2.4  T
   4    -68.9809675 -0.150314E-05  0.227E-03    2.80       6.9  T
   5    -68.9809675 -0.336887E-07  0.123E-03    2.80      12.7  T
   6    -68.9809675 -0.569531E-08  0.330E-04    2.80      47.3  T
   7    -68.9809675 -0.160006E-08  0.141E-04    2.80     110.6  T
     SCC iter.                  ...        0 min,  0.049 sec
     gradient                   ...        0 min,  0.018 sec
 * total energy  :   -68.0752100 Eh     change       -0.1242880E-03 Eh
   gradient norm :     0.0079737 Eh/α   predicted    -0.1202941E-03 (  -3.21%)
   displ. norm   :     0.1963872 α      lambda       -0.1624450E-03
   maximum displ.:     0.1140158 α      in ANC's #4, #3, #12, ...

........................................................................
.............................. CYCLE   19 ..............................
........................................................................
   1    -68.9830294 -0.689830E+02  0.783E-02    2.81       0.0  T
   2    -68.9830309 -0.144681E-05  0.460E-02    2.80       1.0  T
   3    -68.9830305  0.376441E-06  0.449E-03    2.81       3.5  T
   4    -68.9830311 -0.659245E-06  0.138E-03    2.80      11.3  T
   5    -68.9830312 -0.333648E-07  0.718E-04    2.80      21.7  T
   6    -68.9830312 -0.115763E-08  0.325E-04    2.80      48.0  T
     SCC iter.                  ...        0 min,  0.043 sec
     gradient                   ...        0 min,  0.018 sec
 * total energy  :   -68.0753287 Eh     change       -0.1186358E-03 Eh
   gradient norm :     0.0061431 Eh/α   predicted    -0.8435549E-04 ( -28.90%)
   displ. norm   :     0.3545466 α      lambda       -0.2313308E-03
   maximum displ.:     0.1980158 α      in ANC's #4, #3, #11, ...

........................................................................
.............................. CYCLE   20 ..............................
........................................................................
   1    -68.9839675 -0.689840E+02  0.140E-01    2.81       0.0  T
   2    -68.9839698 -0.222509E-05  0.825E-02    2.81       1.0  T
   3    -68.9839693  0.480716E-06  0.644E-03    2.80       2.4  T
   4    -68.9839706 -0.131342E-05  0.205E-03    2.80       7.6  T
   5    -68.9839706 -0.893894E-08  0.104E-03    2.80      15.1  T
   6    -68.9839706 -0.894600E-08  0.408E-04    2.80      38.3  T
   7    -68.9839706 -0.181454E-08  0.131E-04    2.80     118.9  T
     SCC iter.                  ...        0 min,  0.049 sec
     gradient                   ...        0 min,  0.018 sec
 * total energy  :   -68.0754726 Eh     change       -0.1438991E-03 Eh
   gradient norm :     0.0047337 Eh/α   predicted    -0.1302067E-03 (  -9.52%)
   displ. norm   :     0.3871904 α      lambda       -0.1904376E-03
   maximum displ.:     0.2269007 α      in ANC's #4, #3, #5, ...
 * RMSD in coord.:     0.7946751 α      energy gain  -0.7452377E-02 Eh

generating ANC from model Hessian ...
Using Lindh-Hessian (1995)
 Shifting diagonal of input Hessian by   9.828758803457866E-003
 Lowest  eigenvalues of input Hessian
    0.000000    0.000000    0.000000    0.000000    0.000000    0.000000
    0.010000    0.010023    0.010573    0.010936    0.011534    0.012552
    0.013119    0.013922    0.014190    0.015017    0.015767    0.016135
 Highest eigenvalues
    1.966623    1.999798    2.047943    2.108750    2.165331    2.343427
 

........................................................................
.............................. CYCLE   21 ..............................
........................................................................
   1    -68.9820945 -0.689821E+02  0.153E-01    2.81       0.0  T
   2    -68.9821009 -0.639824E-05  0.903E-02    2.81       1.0  T
   3    -68.9820985  0.242220E-05  0.114E-02    2.80       1.4  T
   4    -68.9821026 -0.416057E-05  0.309E-03    2.80       5.1  T
   5    -68.9821027 -0.496750E-07  0.188E-03    2.80       8.3  T
   6    -68.9821027 -0.259014E-07  0.802E-04    2.80      19.5  T
   7    -68.9821027 -0.377142E-08  0.197E-04    2.80      79.5  T
     SCC iter.                  ...        0 min,  0.051 sec
     gradient                   ...        0 min,  0.018 sec
 * total energy  :   -68.0755261 Eh     change       -0.5350112E-04 Eh
   gradient norm :     0.0117031 Eh/α   predicted     0.0000000E+00 (-100.00%)
   displ. norm   :     0.0549626 α      lambda       -0.1365734E-03
   maximum displ.:     0.0250427 α      in ANC's #3, #11, #4, ...

........................................................................
.............................. CYCLE   22 ..............................
........................................................................
   1    -68.9849671 -0.689850E+02  0.270E-02    2.81       0.0  T
   2    -68.9849701 -0.302593E-05  0.165E-02    2.81       1.0  T
   3    -68.9849699  0.242570E-06  0.672E-03    2.81       2.3  T
   4    -68.9849705 -0.614681E-06  0.132E-03    2.81      11.8  T
   5    -68.9849705 -0.278860E-07  0.654E-04    2.81      23.9  T
   6    -68.9849705 -0.695860E-08  0.332E-04    2.81      47.1  T
     SCC iter.                  ...        0 min,  0.043 sec
     gradient                   ...        0 min,  0.018 sec
 * total energy  :   -68.0756478 Eh     change       -0.1217247E-03 Eh
   gradient norm :     0.0026967 Eh/α   predicted    -0.9355135E-04 ( -23.15%)
   displ. norm   :     0.0747447 α      lambda       -0.6344452E-04
   maximum displ.:     0.0418044 α      in ANC's #3, #11, #4, ...

........................................................................
.............................. CYCLE   23 ..............................
........................................................................
   1    -68.9861222 -0.689861E+02  0.266E-02    2.80       0.0  T
   2    -68.9861228 -0.560925E-06  0.158E-02    2.81       1.0  T
   3    -68.9861225  0.254851E-06  0.357E-03    2.81       4.4  T
   4    -68.9861229 -0.361396E-06  0.777E-04    2.81      20.1  T
   5    -68.9861229 -0.706034E-08  0.428E-04    2.81      36.5  T
     SCC iter.                  ...        0 min,  0.037 sec
     gradient                   ...        0 min,  0.018 sec
 * total energy  :   -68.0756937 Eh     change       -0.4585367E-04 Eh
   gradient norm :     0.0022175 Eh/α   predicted    -0.3190428E-04 ( -30.42%)
   displ. norm   :     0.1226953 α      lambda       -0.6121708E-04
   maximum displ.:     0.0708741 α      in ANC's #3, #11, #4, ...

........................................................................
.............................. CYCLE   24 ..............................
........................................................................
   1    -68.9863004 -0.689863E+02  0.426E-02    2.80       0.0  T
   2    -68.9863007 -0.276308E-06  0.251E-02    2.80       1.0  T
   3    -68.9863006  0.838283E-07  0.266E-03    2.80       5.9  T
   4    -68.9863008 -0.215202E-06  0.945E-04    2.80      16.5  T
   5    -68.9863008 -0.147460E-08  0.491E-04    2.80      31.8  T
     SCC iter.                  ...        0 min,  0.036 sec
     gradient                   ...        0 min,  0.018 sec
 * total energy  :   -68.0757417 Eh     change       -0.4800760E-04 Eh
   gradient norm :     0.0033718 Eh/α   predicted    -0.3109396E-04 ( -35.23%)
   displ. norm   :     0.1782241 α      lambda       -0.6987418E-04
   maximum displ.:     0.1071442 α      in ANC's #3, #4, #11, ...

........................................................................
.............................. CYCLE   25 ..............................
........................................................................
   1    -68.9854675 -0.689855E+02  0.628E-02    2.80       0.0  T
   2    -68.9854681 -0.560758E-06  0.371E-02    2.80       1.0  T
   3    -68.9854681  0.320095E-07  0.327E-03    2.80       4.8  T
   4    -68.9854684 -0.311488E-06  0.138E-03    2.80      11.3  T
   5    -68.9854684 -0.914568E-09  0.602E-04    2.80      25.9  T
   6    -68.9854684 -0.457027E-08  0.151E-04    2.80     103.2  T
     SCC iter.                  ...        0 min,  0.042 sec
     gradient                   ...        0 min,  0.018 sec
 * total energy  :   -68.0757948 Eh     change       -0.5313343E-04 Eh
   gradient norm :     0.0027304 Eh/α   predicted    -0.3607777E-04 ( -32.10%)
   displ. norm   :     0.1554880 α      lambda       -0.5043787E-04
   maximum displ.:     0.0992783 α      in ANC's #3, #4, #5, ...

........................................................................
.............................. CYCLE   26 ..............................
........................................................................
   1    -68.9845846 -0.689846E+02  0.560E-02    2.80       0.0  T
   2    -68.9845850 -0.478834E-06  0.331E-02    2.80       1.0  T
   3    -68.9845850  0.643922E-07  0.314E-03    2.80       5.0  T
   4    -68.9845853 -0.287252E-06  0.124E-03    2.80      12.5  T
   5    -68.9845853 -0.486551E-09  0.657E-04    2.80      23.8  T
   6    -68.9845853 -0.502000E-08  0.135E-04    2.80     116.0  T
     SCC iter.                  ...        0 min,  0.044 sec
     gradient                   ...        0 min,  0.018 sec
 * total energy  :   -68.0758345 Eh     change       -0.3974548E-04 Eh
   gradient norm :     0.0026980 Eh/α   predicted    -0.2582937E-04 ( -35.01%)
   displ. norm   :     0.1357401 α      lambda       -0.4857558E-04
   maximum displ.:     0.0904273 α      in ANC's #3, #4, #1, ...

........................................................................
.............................. CYCLE   27 ..............................
........................................................................
   1    -68.9842796 -0.689843E+02  0.487E-02    2.80       0.0  T
   2    -68.9842799 -0.281943E-06  0.287E-02    2.80       1.0  T
   3    -68.9842798  0.348582E-07  0.254E-03    2.80       6.2  T
   4    -68.9842800 -0.175129E-06  0.101E-03    2.80      15.4  T
   5    -68.9842800 -0.242343E-08  0.515E-04    2.80      30.3  T
   6    -68.9842800 -0.233871E-08  0.120E-04    2.80     130.5  T
     SCC iter.                  ...        0 min,  0.046 sec
     gradient                   ...        0 min,  0.018 sec
 * total energy  :   -68.0758752 Eh     change       -0.4069280E-04 Eh
   gradient norm :     0.0029770 Eh/α   predicted    -0.2473611E-04 ( -39.21%)
   displ. norm   :     0.1769433 α      lambda       -0.6558992E-04
   maximum displ.:     0.1187876 α      in ANC's #3, #4, #1, ...

........................................................................
.............................. CYCLE   28 ..............................
........................................................................
   1    -68.9844095 -0.689844E+02  0.626E-02    2.80       0.0  T
   2    -68.9844099 -0.372154E-06  0.368E-02    2.80       1.0  T
   3    -68.9844099  0.100350E-07  0.280E-03    2.80       5.6  T
   4    -68.9844101 -0.193030E-06  0.114E-03    2.80      13.7  T
   5    -68.9844101 -0.443323E-08  0.559E-04    2.80      27.9  T
   6    -68.9844101 -0.216127E-08  0.134E-04    2.80     116.8  T
     SCC iter.                  ...        0 min,  0.045 sec
     gradient                   ...        0 min,  0.018 sec
 * total energy  :   -68.0759276 Eh     change       -0.5233230E-04 Eh
   gradient norm :     0.0034170 Eh/α   predicted    -0.3382425E-04 ( -35.37%)
   displ. norm   :     0.2062844 α      lambda       -0.6356281E-04
   maximum displ.:     0.1407652 α      in ANC's #3, #4, #1, ...

........................................................................
.............................. CYCLE   29 ..............................
........................................................................
   1    -68.9846642 -0.689847E+02  0.713E-02    2.80       0.0  T
   2    -68.9846647 -0.421167E-06  0.419E-02    2.80       1.0  T
   3    -68.9846647 -0.460902E-07  0.265E-03    2.80       5.9  T
   4    -68.9846649 -0.161884E-06  0.117E-03    2.80      13.3  T
   5    -68.9846649 -0.353963E-08  0.581E-04    2.80      26.9  T
   6    -68.9846649 -0.293551E-08  0.123E-04    2.80     126.7  T
     SCC iter.                  ...        0 min,  0.042 sec
     gradient                   ...        0 min,  0.018 sec
 * total energy  :   -68.0759789 Eh     change       -0.5127823E-04 Eh
   gradient norm :     0.0036464 Eh/α   predicted    -0.3313405E-04 ( -35.38%)
   displ. norm   :     0.2352341 α      lambda       -0.6591358E-04
   maximum displ.:     0.1638031 α      in ANC's #3, #4, #1, ...

........................................................................
.............................. CYCLE   30 ..............................
........................................................................
   1    -68.9849132 -0.689849E+02  0.806E-02    2.80       0.0  T
   2    -68.9849137 -0.522038E-06  0.473E-02    2.80       1.0  T
   3    -68.9849138 -0.798674E-07  0.262E-03    2.80       6.0  T
   4    -68.9849140 -0.165987E-06  0.124E-03    2.80      12.6  T
   5    -68.9849140 -0.552593E-08  0.619E-04    2.80      25.2  T
   6    -68.9849140 -0.251006E-08  0.167E-04    2.80      93.7  T
     SCC iter.                  ...        0 min,  0.042 sec
     gradient                   ...        0 min,  0.018 sec
 * total energy  :   -68.0760345 Eh     change       -0.5565996E-04 Eh
   gradient norm :     0.0034336 Eh/α   predicted    -0.3478193E-04 ( -37.51%)
   displ. norm   :     0.2879020 α      lambda       -0.8136535E-04
   maximum displ.:     0.2055140 α      in ANC's #3, #1, #4, ...

........................................................................
.............................. CYCLE   31 ..............................
........................................................................
   1    -68.9851954 -0.689852E+02  0.976E-02    2.80       0.0  T
   2    -68.9851961 -0.690056E-06  0.573E-02    2.80       1.0  T
   3    -68.9851963 -0.140136E-06  0.284E-03    2.80       5.5  T
   4    -68.9851965 -0.198749E-06  0.139E-03    2.80      11.2  T
   5    -68.9851965 -0.470794E-08  0.611E-04    2.80      25.6  T
   6    -68.9851965 -0.380227E-08  0.176E-04    2.80      88.6  T
     SCC iter.                  ...        0 min,  0.042 sec
     gradient                   ...        0 min,  0.018 sec
 * total energy  :   -68.0761025 Eh     change       -0.6803168E-04 Eh
   gradient norm :     0.0024952 Eh/α   predicted    -0.4405579E-04 ( -35.24%)
   displ. norm   :     0.3354243 α      lambda       -0.9032028E-04
   maximum displ.:     0.2451295 α      in ANC's #3, #1, #4, ...

........................................................................
.............................. CYCLE   32 ..............................
........................................................................
   1    -68.9849700 -0.689850E+02  0.114E-01    2.80       0.0  T
   2    -68.9849712 -0.112904E-05  0.670E-02    2.80       1.0  T
   3    -68.9849713 -0.149325E-06  0.334E-03    2.80       4.7  T
   4    -68.9849716 -0.294079E-06  0.166E-03    2.80       9.4  T
   5    -68.9849716 -0.230664E-07  0.851E-04    2.80      18.4  T
   6    -68.9849716 -0.202746E-08  0.259E-04    2.80      60.3  T
     SCC iter.                  ...        0 min,  0.042 sec
     gradient                   ...        0 min,  0.018 sec
 * total energy  :   -68.0761759 Eh     change       -0.7340112E-04 Eh
   gradient norm :     0.0025636 Eh/α   predicted    -0.5024134E-04 ( -31.55%)
   displ. norm   :     0.3570406 α      lambda       -0.1022517E-03
   maximum displ.:     0.2697067 α      in ANC's #3, #1, #7, ...

........................................................................
.............................. CYCLE   33 ..............................
........................................................................
   1    -68.9859413 -0.689859E+02  0.120E-01    2.80       0.0  T
   2    -68.9859426 -0.128082E-05  0.704E-02    2.80       1.0  T
   3    -68.9859426 -0.903105E-07  0.363E-03    2.80       4.3  T
   4    -68.9859430 -0.362848E-06  0.148E-03    2.80      10.6  T
   5    -68.9859430 -0.634310E-08  0.763E-04    2.80      20.5  T
   6    -68.9859430 -0.307431E-08  0.264E-04    2.80      59.2  T
     SCC iter.                  ...        0 min,  0.042 sec
     gradient                   ...        0 min,  0.018 sec
 * total energy  :   -68.0762476 Eh     change       -0.7167130E-04 Eh
   gradient norm :     0.0030977 Eh/α   predicted    -0.5764811E-04 ( -19.57%)
   displ. norm   :     0.4851967 α      lambda       -0.1049095E-03
   maximum displ.:     0.3662059 α      in ANC's #3, #1, #7, ...

........................................................................
.............................. CYCLE   34 ..............................
........................................................................
   1    -68.9821374 -0.689821E+02  0.164E-01    2.80       0.0  T
   2    -68.9821411 -0.361066E-05  0.965E-02    2.80       1.0  T
   3    -68.9821403  0.754864E-06  0.773E-03    2.80       2.0  T
   4    -68.9821423 -0.196829E-05  0.264E-03    2.80       5.9  T
   5    -68.9821423 -0.301661E-07  0.152E-03    2.80      10.3  T
   6    -68.9821423 -0.113843E-07  0.602E-04    2.80      25.9  T
   7    -68.9821423 -0.339546E-08  0.149E-04    2.80     104.8  T
     SCC iter.                  ...        0 min,  0.049 sec
     gradient                   ...        0 min,  0.018 sec
 * total energy  :   -68.0762850 Eh     change       -0.3736447E-04 Eh
   gradient norm :     0.0069726 Eh/α   predicted    -0.6480463E-04 (  73.44%)
   displ. norm   :     0.1095105 α      lambda       -0.1205913E-03
   maximum displ.:     0.0656973 α      in ANC's #3, #8, #9, ...

........................................................................
.............................. CYCLE   35 ..............................
........................................................................
   1    -68.9864854 -0.689865E+02  0.376E-02    2.80       0.0  T
   2    -68.9864861 -0.733845E-06  0.222E-02    2.80       1.0  T
   3    -68.9864856  0.521140E-06  0.451E-03    2.80       3.5  T
   4    -68.9864863 -0.714112E-06  0.889E-04    2.80      17.6  T
   5    -68.9864863 -0.729429E-08  0.525E-04    2.80      29.7  T
     SCC iter.                  ...        0 min,  0.036 sec
     gradient                   ...        0 min,  0.018 sec
 * total energy  :   -68.0763512 Eh     change       -0.6619821E-04 Eh
   gradient norm :     0.0038752 Eh/α   predicted    -0.6101929E-04 (  -7.82%)
   displ. norm   :     0.2861848 α      lambda       -0.7593841E-04
   maximum displ.:     0.2259611 α      in ANC's #3, #1, #7, ...

........................................................................
.............................. CYCLE   36 ..............................
........................................................................
   1    -68.9861253 -0.689861E+02  0.951E-02    2.80       0.0  T
   2    -68.9861276 -0.237651E-05  0.558E-02    2.80       1.0  T
   3    -68.9861277 -0.615399E-07  0.334E-03    2.80       4.7  T
   4    -68.9861279 -0.205022E-06  0.147E-03    2.80      10.6  T
   5    -68.9861279 -0.405050E-07  0.741E-04    2.80      21.1  T
   6    -68.9861279 -0.682078E-09  0.251E-04    2.80      62.1  T
     SCC iter.                  ...        0 min,  0.042 sec
     gradient                   ...        0 min,  0.018 sec
 * total energy  :   -68.0764060 Eh     change       -0.5478207E-04 Eh
   gradient norm :     0.0031923 Eh/α   predicted    -0.4107947E-04 ( -25.01%)
   displ. norm   :     0.4537533 α      lambda       -0.8105650E-04
   maximum displ.:     0.3615297 α      in ANC's #3, #1, #7, ...

........................................................................
.............................. CYCLE   37 ..............................
........................................................................
   1    -68.9831042 -0.689831E+02  0.154E-01    2.80       0.0  T
   2    -68.9831063 -0.203932E-05  0.907E-02    2.80       1.0  T
   3    -68.9831058  0.527627E-06  0.660E-03    2.80       2.4  T
   4    -68.9831072 -0.147165E-05  0.225E-03    2.80       6.9  T
   5    -68.9831072 -0.997291E-08  0.124E-03    2.80      12.6  T
   6    -68.9831072 -0.131226E-07  0.290E-04    2.80      53.9  T
   7    -68.9831072 -0.106766E-08  0.141E-04    2.80     110.6  T
     SCC iter.                  ...        0 min,  0.049 sec
     gradient                   ...        0 min,  0.018 sec
 * total energy  :   -68.0764445 Eh     change       -0.3854497E-04 Eh
   gradient norm :     0.0043138 Eh/α   predicted    -0.4887673E-04 (  26.80%)
   displ. norm   :     0.0831378 α      lambda       -0.6730289E-04
   maximum displ.:     0.0489971 α      in ANC's #8, #5, #4, ...

........................................................................
.............................. CYCLE   38 ..............................
........................................................................
   1    -68.9867366 -0.689867E+02  0.337E-02    2.80       0.0  T
   2    -68.9867372 -0.550115E-06  0.199E-02    2.80       1.0  T
   3    -68.9867369  0.277435E-06  0.361E-03    2.80       4.3  T
   4    -68.9867373 -0.390926E-06  0.822E-04    2.80      19.0  T
   5    -68.9867373 -0.812719E-08  0.425E-04    2.80      36.7  T
     SCC iter.                  ...        0 min,  0.036 sec
     gradient                   ...        0 min,  0.018 sec
 * total energy  :   -68.0764771 Eh     change       -0.3260660E-04 Eh
   gradient norm :     0.0033228 Eh/α   predicted    -0.3388943E-04 (   3.93%)
   displ. norm   :     0.1099013 α      lambda       -0.2834942E-04
   maximum displ.:     0.0899083 α      in ANC's #3, #1, #7, ...

........................................................................
.............................. CYCLE   39 ..............................
........................................................................
   1    -68.9865998 -0.689866E+02  0.406E-02    2.80       0.0  T
   2    -68.9866003 -0.494782E-06  0.238E-02    2.80       1.0  T
   3    -68.9866003  0.786195E-07  0.225E-03    2.80       6.9  T
   4    -68.9866004 -0.150042E-06  0.700E-04    2.80      22.3  T
   5    -68.9866004 -0.916312E-08  0.351E-04    2.80      44.5  T
     SCC iter.                  ...        0 min,  0.036 sec
     gradient                   ...        0 min,  0.018 sec
 * total energy  :   -68.0764972 Eh     change       -0.2012492E-04 Eh
   gradient norm :     0.0021039 Eh/α   predicted    -0.1434863E-04 ( -28.70%)
   displ. norm   :     0.2030200 α      lambda       -0.3164250E-04
   maximum displ.:     0.1691685 α      in ANC's #3, #7, #1, ...

........................................................................
.............................. CYCLE   40 ..............................
........................................................................
   1    -68.9854531 -0.689855E+02  0.726E-02    2.80       0.0  T
   2    -68.9854539 -0.738061E-06  0.427E-02    2.80       1.0  T
   3    -68.9854539 -0.730414E-07  0.227E-03    2.80       6.9  T
   4    -68.9854540 -0.114380E-06  0.113E-03    2.80      13.8  T
   5    -68.9854541 -0.164346E-07  0.596E-04    2.80      26.2  T
   6    -68.9854541 -0.886104E-09  0.195E-04    2.80      80.2  T
     SCC iter.                  ...        0 min,  0.044 sec
     gradient                   ...        0 min,  0.018 sec
 * total energy  :   -68.0765171 Eh     change       -0.1988372E-04 Eh
   gradient norm :     0.0022156 Eh/α   predicted    -0.1647481E-04 ( -17.14%)
   displ. norm   :     0.0849114 α      lambda       -0.2041396E-04
   maximum displ.:     0.0630154 α      in ANC's #3, #5, #4, ...

........................................................................
.............................. CYCLE   41 ..............................
........................................................................
   1    -68.9861264 -0.689861E+02  0.309E-02    2.80       0.0  T
   2    -68.9861266 -0.150983E-06  0.182E-02    2.80       1.0  T
   3    -68.9861266 -0.151164E-07  0.126E-03    2.80      12.4  T
   4    -68.9861266 -0.351930E-07  0.594E-04    2.80      26.3  T
   5    -68.9861266 -0.201953E-08  0.324E-04    2.80      48.2  T
     SCC iter.                  ...        0 min,  0.036 sec
     gradient                   ...        0 min,  0.018 sec
 * total energy  :   -68.0765300 Eh     change       -0.1291458E-04 Eh
   gradient norm :     0.0020613 Eh/α   predicted    -0.1028517E-04 ( -20.36%)
   displ. norm   :     0.1080874 α      lambda       -0.1526448E-04
   maximum displ.:     0.0879369 α      in ANC's #3, #4, #5, ...

........................................................................
.............................. CYCLE   42 ..............................
........................................................................
   1    -68.9860749 -0.689861E+02  0.390E-02    2.80       0.0  T
   2    -68.9860751 -0.169025E-06  0.230E-02    2.80       1.0  T
   3    -68.9860751 -0.456793E-07  0.115E-03    2.80      13.6  T
   4    -68.9860751 -0.181921E-07  0.640E-04    2.80      24.4  T
   5    -68.9860751 -0.231489E-08  0.329E-04    2.80      47.5  T
     SCC iter.                  ...        0 min,  0.038 sec
     gradient                   ...        0 min,  0.018 sec
 * total energy  :   -68.0765406 Eh     change       -0.1058572E-04 Eh
   gradient norm :     0.0018660 Eh/α   predicted    -0.7722017E-05 ( -27.05%)
   displ. norm   :     0.1671188 α      lambda       -0.1673547E-04
   maximum displ.:     0.1304670 α      in ANC's #3, #4, #5, ...
 * RMSD in coord.:     0.6125354 α      energy gain  -0.1068039E-02 Eh

generating ANC from model Hessian ...
Using Lindh-Hessian (1995)
 Shifting diagonal of input Hessian by   9.845281858817815E-003
 Lowest  eigenvalues of input Hessian
    0.000000    0.000000    0.000000    0.000000    0.000000    0.000000
    0.010000    0.010044    0.010583    0.011014    0.011439    0.012688
    0.013179    0.013668    0.014240    0.015028    0.015934    0.016177
 Highest eigenvalues
    1.974111    1.998866    2.053821    2.109001    2.167285    2.367012
 

........................................................................
.............................. CYCLE   43 ..............................
........................................................................
   1    -68.9864334 -0.689864E+02  0.607E-02    2.79       0.0  T
   2    -68.9864338 -0.373285E-06  0.357E-02    2.79       1.0  T
   3    -68.9864339 -0.927712E-07  0.185E-03    2.80       8.4  T
   4    -68.9864339 -0.578087E-07  0.101E-03    2.79      15.5  T
   5    -68.9864339 -0.669436E-08  0.497E-04    2.79      31.4  T
   6    -68.9864339 -0.137661E-08  0.139E-04    2.79     112.2  T
     SCC iter.                  ...        0 min,  0.043 sec
     gradient                   ...        0 min,  0.018 sec
 * total energy  :   -68.0765552 Eh     change       -0.1456176E-04 Eh
   gradient norm :     0.0024787 Eh/α   predicted     0.0000000E+00 (-100.00%)
   displ. norm   :     0.0214603 α      lambda       -0.1514333E-04
   maximum displ.:     0.0079286 α      in ANC's #1, #9, #3, ...

........................................................................
.............................. CYCLE   44 ..............................
........................................................................
   1    -68.9867318 -0.689867E+02  0.108E-02    2.80       0.0  T
   2    -68.9867318 -0.706689E-07  0.643E-03    2.80       2.4  T
   3    -68.9867318  0.281991E-07  0.116E-03    2.80      13.4  T
   4    -68.9867318 -0.390821E-07  0.240E-04    2.80      65.1  T
   5    -68.9867318 -0.678739E-09  0.133E-04    2.80     117.5  T
     SCC iter.                  ...        0 min,  0.036 sec
     gradient                   ...        0 min,  0.018 sec
 * total energy  :   -68.0765658 Eh     change       -0.1066524E-04 Eh
   gradient norm :     0.0010225 Eh/α   predicted    -0.8044270E-05 ( -24.57%)
   displ. norm   :     0.0588158 α      lambda       -0.1233587E-04
   maximum displ.:     0.0258254 α      in ANC's #9, #1, #3, ...

........................................................................
.............................. CYCLE   45 ..............................
........................................................................
   1    -68.9870009 -0.689870E+02  0.209E-02    2.80       0.0  T
   2    -68.9870011 -0.177178E-06  0.123E-02    2.80       1.3  T
   3    -68.9870010  0.502858E-07  0.172E-03    2.80       9.1  T
   4    -68.9870011 -0.868551E-07  0.476E-04    2.80      32.8  T
   5    -68.9870011 -0.231415E-08  0.268E-04    2.80      58.3  T
     SCC iter.                  ...        0 min,  0.036 sec
     gradient                   ...        0 min,  0.018 sec
 * total energy  :   -68.0765761 Eh     change       -0.1029312E-04 Eh
   gradient norm :     0.0016504 Eh/α   predicted    -0.6187747E-05 ( -39.88%)
   displ. norm   :     0.0520992 α      lambda       -0.7128809E-05
   maximum displ.:     0.0253644 α      in ANC's #9, #1, #3, ...

........................................................................
.............................. CYCLE   46 ..............................
........................................................................
   1    -68.9867023 -0.689867E+02  0.157E-02    2.80       0.0  T
   2    -68.9867023 -0.572270E-07  0.928E-03    2.80       1.7  T
   3    -68.9867023  0.143517E-08  0.899E-04    2.80      17.4  T
   4    -68.9867024 -0.217704E-07  0.381E-04    2.80      41.0  T
     SCC iter.                  ...        0 min,  0.030 sec
     gradient                   ...        0 min,  0.018 sec
 * total energy  :   -68.0765850 Eh     change       -0.8905786E-05 Eh
   gradient norm :     0.0012514 Eh/α   predicted    -0.3569273E-05 ( -59.92%)
   displ. norm   :     0.1329342 α      lambda       -0.1527248E-04
   maximum displ.:     0.0671899 α      in ANC's #9, #3, #1, ...

........................................................................
.............................. CYCLE   47 ..............................
........................................................................
   1    -68.9860471 -0.689860E+02  0.369E-02    2.80       0.0  T
   2    -68.9860473 -0.232252E-06  0.219E-02    2.80       1.0  T
   3    -68.9860473 -0.256130E-07  0.196E-03    2.80       8.0  T
   4    -68.9860474 -0.896402E-07  0.932E-04    2.80      16.8  T
   5    -68.9860474 -0.135090E-08  0.418E-04    2.80      37.4  T
     SCC iter.                  ...        0 min,  0.036 sec
     gradient                   ...        0 min,  0.018 sec
 * total energy  :   -68.0766017 Eh     change       -0.1662722E-04 Eh
   gradient norm :     0.0014504 Eh/α   predicted    -0.7698962E-05 ( -53.70%)
   displ. norm   :     0.1363595 α      lambda       -0.1176697E-04
   maximum displ.:     0.0688262 α      in ANC's #3, #1, #9, ...

........................................................................
.............................. CYCLE   48 ..............................
........................................................................
   1    -68.9856628 -0.689857E+02  0.356E-02    2.80       0.0  T
   2    -68.9856630 -0.178911E-06  0.211E-02    2.80       1.0  T
   3    -68.9856631 -0.600442E-07  0.156E-03    2.80      10.0  T
   4    -68.9856631 -0.372327E-07  0.869E-04    2.80      18.0  T
   5    -68.9856631 -0.171823E-08  0.317E-04    2.80      49.3  T
     SCC iter.                  ...        0 min,  0.036 sec
     gradient                   ...        0 min,  0.018 sec
 * total energy  :   -68.0766154 Eh     change       -0.1372935E-04 Eh
   gradient norm :     0.0019363 Eh/α   predicted    -0.5933809E-05 ( -56.78%)
   displ. norm   :     0.1448563 α      lambda       -0.1427990E-04
   maximum displ.:     0.0772238 α      in ANC's #1, #3, #9, ...

........................................................................
.............................. CYCLE   49 ..............................
........................................................................
   1    -68.9857945 -0.689858E+02  0.341E-02    2.80       0.0  T
   2    -68.9857946 -0.156678E-06  0.202E-02    2.80       1.0  T
   3    -68.9857947 -0.602619E-07  0.137E-03    2.80      11.4  T
   4    -68.9857947 -0.221423E-07  0.795E-04    2.80      19.6  T
   5    -68.9857947 -0.166555E-08  0.307E-04    2.80      50.8  T
     SCC iter.                  ...        0 min,  0.038 sec
     gradient                   ...        0 min,  0.018 sec
 * total energy  :   -68.0766322 Eh     change       -0.1675382E-04 Eh
   gradient norm :     0.0017019 Eh/α   predicted    -0.7209324E-05 ( -56.97%)
   displ. norm   :     0.1432527 α      lambda       -0.1542304E-04
   maximum displ.:     0.0813984 α      in ANC's #3, #1, #9, ...

........................................................................
.............................. CYCLE   50 ..............................
........................................................................
   1    -68.9863517 -0.689864E+02  0.317E-02    2.80       0.0  T
   2    -68.9863518 -0.133256E-06  0.188E-02    2.80       1.0  T
   3    -68.9863519 -0.227798E-07  0.134E-03    2.80      11.6  T
   4    -68.9863519 -0.378138E-07  0.653E-04    2.80      23.9  T
   5    -68.9863519 -0.114255E-10  0.262E-04    2.80      59.5  T
     SCC iter.                  ...        0 min,  0.036 sec
     gradient                   ...        0 min,  0.018 sec
 * total energy  :   -68.0766497 Eh     change       -0.1757442E-04 Eh
   gradient norm :     0.0010484 Eh/α   predicted    -0.7783710E-05 ( -55.71%)
   displ. norm   :     0.1553604 α      lambda       -0.1242265E-04
   maximum displ.:     0.0928290 α      in ANC's #3, #1, #9, ...

........................................................................
.............................. CYCLE   51 ..............................
........................................................................
   1    -68.9865057 -0.689865E+02  0.340E-02    2.80       0.0  T
   2    -68.9865058 -0.111307E-06  0.201E-02    2.80       1.0  T
   3    -68.9865058 -0.275252E-07  0.120E-03    2.80      13.0  T
   4    -68.9865059 -0.272794E-07  0.627E-04    2.80      24.9  T
   5    -68.9865059 -0.784908E-09  0.248E-04    2.80      63.0  T
     SCC iter.                  ...        0 min,  0.036 sec
     gradient                   ...        0 min,  0.018 sec
 * total energy  :   -68.0766635 Eh     change       -0.1378541E-04 Eh
   gradient norm :     0.0011891 Eh/α   predicted    -0.6278369E-05 ( -54.46%)
   displ. norm   :     0.1369477 α      lambda       -0.1311756E-04
   maximum displ.:     0.0855606 α      in ANC's #3, #1, #2, ...

........................................................................
.............................. CYCLE   52 ..............................
........................................................................
   1    -68.9873163 -0.689873E+02  0.343E-02    2.80       0.0  T
   2    -68.9873164 -0.115687E-06  0.203E-02    2.80       1.0  T
   3    -68.9873164  0.138985E-07  0.135E-03    2.80      11.6  T
   4    -68.9873165 -0.561242E-07  0.490E-04    2.80      31.8  T
   5    -68.9873165 -0.521354E-09  0.249E-04    2.80      62.6  T
     SCC iter.                  ...        0 min,  0.036 sec
     gradient                   ...        0 min,  0.018 sec
 * total energy  :   -68.0766770 Eh     change       -0.1353150E-04 Eh
   gradient norm :     0.0014255 Eh/α   predicted    -0.6613794E-05 ( -51.12%)
   displ. norm   :     0.2991852 α      lambda       -0.1914188E-04
   maximum displ.:     0.1872245 α      in ANC's #3, #1, #9, ...

........................................................................
.............................. CYCLE   53 ..............................
........................................................................
   1    -68.9859906 -0.689860E+02  0.708E-02    2.80       0.0  T
   2    -68.9859912 -0.550790E-06  0.418E-02    2.79       1.0  T
   3    -68.9859912 -0.790986E-07  0.227E-03    2.79       6.9  T
   4    -68.9859914 -0.107797E-06  0.114E-03    2.79      13.7  T
   5    -68.9859914 -0.807648E-08  0.611E-04    2.79      25.6  T
   6    -68.9859914 -0.168180E-08  0.168E-04    2.79      92.8  T
     SCC iter.                  ...        0 min,  0.043 sec
     gradient                   ...        0 min,  0.018 sec
 * total energy  :   -68.0766977 Eh     change       -0.2060274E-04 Eh
   gradient norm :     0.0024345 Eh/α   predicted    -0.9956540E-05 ( -51.67%)
   displ. norm   :     0.1675241 α      lambda       -0.2002052E-04
   maximum displ.:     0.1074162 α      in ANC's #3, #1, #2, ...

........................................................................
.............................. CYCLE   54 ..............................
........................................................................
   1    -68.9855142 -0.689855E+02  0.436E-02    2.79       0.0  T
   2    -68.9855143 -0.129313E-06  0.257E-02    2.79       1.0  T
   3    -68.9855143 -0.348181E-07  0.113E-03    2.79      13.8  T
   4    -68.9855143 -0.255854E-07  0.594E-04    2.79      26.3  T
   5    -68.9855143 -0.116775E-08  0.255E-04    2.79      61.1  T
     SCC iter.                  ...        0 min,  0.038 sec
     gradient                   ...        0 min,  0.018 sec
 * total energy  :   -68.0767124 Eh     change       -0.1476089E-04 Eh
   gradient norm :     0.0028793 Eh/α   predicted    -0.1029310E-04 ( -30.27%)
   displ. norm   :     0.1764517 α      lambda       -0.4332863E-04
   maximum displ.:     0.1083817 α      in ANC's #3, #1, #2, ...

........................................................................
.............................. CYCLE   55 ..............................
........................................................................
   1    -68.9860204 -0.689860E+02  0.552E-02    2.79       0.0  T
   2    -68.9860206 -0.273801E-06  0.325E-02    2.79       1.0  T
   3    -68.9860207 -0.351975E-07  0.165E-03    2.79       9.5  T
   4    -68.9860207 -0.635889E-07  0.810E-04    2.79      19.3  T
   5    -68.9860208 -0.602520E-08  0.420E-04    2.79      37.2  T
     SCC iter.                  ...        0 min,  0.036 sec
     gradient                   ...        0 min,  0.018 sec
 * total energy  :   -68.0767375 Eh     change       -0.2511959E-04 Eh
   gradient norm :     0.0017122 Eh/α   predicted    -0.2234015E-04 ( -11.06%)
   displ. norm   :     0.3332706 α      lambda       -0.2006079E-04
   maximum displ.:     0.2099071 α      in ANC's #3, #1, #2, ...

........................................................................
.............................. CYCLE   56 ..............................
........................................................................
   1    -68.9843327 -0.689843E+02  0.888E-02    2.79       0.0  T
   2    -68.9843334 -0.687458E-06  0.523E-02    2.79       1.0  T
   3    -68.9843334 -0.823177E-07  0.242E-03    2.79       6.5  T
   4    -68.9843336 -0.145036E-06  0.115E-03    2.79      13.5  T
   5    -68.9843336 -0.104573E-07  0.598E-04    2.79      26.1  T
   6    -68.9843336 -0.131895E-08  0.155E-04    2.79     100.7  T
     SCC iter.                  ...        0 min,  0.042 sec
     gradient                   ...        0 min,  0.017 sec
 * total energy  :   -68.0767410 Eh     change       -0.3463614E-05 Eh
   gradient norm :     0.0036750 Eh/α   predicted    -0.1052951E-04 ( 204.00%)
   displ. norm   :     0.0648154 α      lambda       -0.2598729E-04
   maximum displ.:     0.0402563 α      in ANC's #3, #1, #6, ...

........................................................................
.............................. CYCLE   57 ..............................
........................................................................
   1    -68.9859353 -0.689859E+02  0.178E-02    2.79       0.0  T
   2    -68.9859355 -0.199405E-06  0.105E-02    2.79       1.5  T
   3    -68.9859355  0.323577E-07  0.155E-03    2.79      10.0  T
   4    -68.9859356 -0.540401E-07  0.464E-04    2.79      33.7  T
   5    -68.9859356 -0.418611E-08  0.222E-04    2.79      70.3  T
     SCC iter.                  ...        0 min,  0.036 sec
     gradient                   ...        0 min,  0.018 sec
 * total energy  :   -68.0767565 Eh     change       -0.1548615E-04 Eh
   gradient norm :     0.0015002 Eh/α   predicted    -0.1305262E-04 ( -15.71%)
   displ. norm   :     0.0671475 α      lambda       -0.1070403E-04
   maximum displ.:     0.0352111 α      in ANC's #1, #4, #3, ...

........................................................................
.............................. CYCLE   58 ..............................
........................................................................
   1    -68.9865364 -0.689865E+02  0.223E-02    2.80       0.0  T
   2    -68.9865365 -0.151549E-06  0.131E-02    2.80       1.2  T
   3    -68.9865365  0.259112E-07  0.131E-03    2.80      11.9  T
   4    -68.9865366 -0.484682E-07  0.408E-04    2.80      38.3  T
   5    -68.9865366 -0.268696E-08  0.216E-04    2.80      72.4  T
     SCC iter.                  ...        0 min,  0.036 sec
     gradient                   ...        0 min,  0.018 sec
 * total energy  :   -68.0767659 Eh     change       -0.9430300E-05 Eh
   gradient norm :     0.0012181 Eh/α   predicted    -0.5367667E-05 ( -43.08%)
   displ. norm   :     0.1099474 α      lambda       -0.7247611E-05
   maximum displ.:     0.0630918 α      in ANC's #1, #3, #4, ...

........................................................................
.............................. CYCLE   59 ..............................
........................................................................
   1    -68.9864999 -0.689865E+02  0.309E-02    2.79       0.0  T
   2    -68.9865000 -0.652486E-07  0.182E-02    2.79       1.0  T
   3    -68.9865000 -0.175878E-07  0.870E-04    2.79      17.9  T
   4    -68.9865000 -0.158921E-07  0.450E-04    2.79      34.7  T
     SCC iter.                  ...        0 min,  0.029 sec
     gradient                   ...        0 min,  0.018 sec
 * total energy  :   -68.0767744 Eh     change       -0.8500938E-05 Eh
   gradient norm :     0.0009588 Eh/α   predicted    -0.3643929E-05 ( -57.13%)
   displ. norm   :     0.2157753 α      lambda       -0.9221099E-05
   maximum displ.:     0.1261896 α      in ANC's #1, #3, #2, ...

........................................................................
.............................. CYCLE   60 ..............................
........................................................................
   1    -68.9857302 -0.689857E+02  0.573E-02    2.79       0.0  T
   2    -68.9857304 -0.265630E-06  0.337E-02    2.79       1.0  T
   3    -68.9857305 -0.584734E-07  0.164E-03    2.79       9.5  T
   4    -68.9857305 -0.597714E-07  0.834E-04    2.79      18.7  T
   5    -68.9857305 -0.301330E-08  0.376E-04    2.79      41.6  T
     SCC iter.                  ...        0 min,  0.036 sec
     gradient                   ...        0 min,  0.018 sec
 * total energy  :   -68.0767816 Eh     change       -0.7142516E-05 Eh
   gradient norm :     0.0015605 Eh/α   predicted    -0.4706591E-05 ( -34.10%)
   displ. norm   :     0.0500259 α      lambda       -0.5602756E-05
   maximum displ.:     0.0304887 α      in ANC's #4, #5, #2, ...

........................................................................
.............................. CYCLE   61 ..............................
........................................................................
   1    -68.9863227 -0.689863E+02  0.157E-02    2.79       0.0  T
   2    -68.9863228 -0.569908E-07  0.925E-03    2.79       1.7  T
   3    -68.9863228  0.285728E-08  0.796E-04    2.79      19.6  T
   4    -68.9863228 -0.171051E-07  0.306E-04    2.79      51.1  T
     SCC iter.                  ...        0 min,  0.030 sec
     gradient                   ...        0 min,  0.018 sec
 * total energy  :   -68.0767871 Eh     change       -0.5585056E-05 Eh
   gradient norm :     0.0008151 Eh/α   predicted    -0.2809420E-05 ( -49.70%)
   displ. norm   :     0.1112182 α      lambda       -0.4955109E-05
   maximum displ.:     0.0558581 α      in ANC's #1, #3, #4, ...

........................................................................
.............................. CYCLE   62 ..............................
........................................................................
   1    -68.9863322 -0.689863E+02  0.295E-02    2.79       0.0  T
   2    -68.9863323 -0.703824E-07  0.174E-02    2.79       1.0  T
   3    -68.9863323 -0.235362E-07  0.851E-04    2.79      18.4  T
   4    -68.9863324 -0.140248E-07  0.478E-04    2.79      32.7  T
     SCC iter.                  ...        0 min,  0.030 sec
     gradient                   ...        0 min,  0.018 sec
 * total energy  :   -68.0767930 Eh     change       -0.5856153E-05 Eh
   gradient norm :     0.0007564 Eh/α   predicted    -0.2495945E-05 ( -57.38%)
   displ. norm   :     0.2078287 α      lambda       -0.7557765E-05
   maximum displ.:     0.1054458 α      in ANC's #1, #3, #2, ...

........................................................................
.............................. CYCLE   63 ..............................
........................................................................
   1    -68.9862646 -0.689863E+02  0.544E-02    2.79       0.0  T
   2    -68.9862648 -0.222204E-06  0.320E-02    2.79       1.0  T
   3    -68.9862649 -0.369024E-07  0.164E-03    2.79       9.5  T
   4    -68.9862649 -0.736434E-07  0.770E-04    2.79      20.3  T
   5    -68.9862649 -0.159642E-08  0.314E-04    2.79      49.7  T
     SCC iter.                  ...        0 min,  0.036 sec
     gradient                   ...        0 min,  0.018 sec
 * total energy  :   -68.0767995 Eh     change       -0.6457444E-05 Eh
   gradient norm :     0.0008495 Eh/α   predicted    -0.3852580E-05 ( -40.34%)
   displ. norm   :     0.0965485 α      lambda       -0.2617283E-05
   maximum displ.:     0.0464368 α      in ANC's #1, #3, #2, ...

........................................................................
.............................. CYCLE   64 ..............................
........................................................................
   1    -68.9861070 -0.689861E+02  0.249E-02    2.79       0.0  T
   2    -68.9861071 -0.742484E-07  0.147E-02    2.79       1.1  T
   3    -68.9861071 -0.111666E-08  0.992E-04    2.79      15.7  T
   4    -68.9861071 -0.283709E-07  0.403E-04    2.79      38.8  T
     SCC iter.                  ...        0 min,  0.030 sec
     gradient                   ...        0 min,  0.017 sec
 * total energy  :   -68.0768019 Eh     change       -0.2461200E-05 Eh
   gradient norm :     0.0008896 Eh/α   predicted    -0.1315880E-05 ( -46.54%)
   displ. norm   :     0.0667440 α      lambda       -0.2452235E-05
   maximum displ.:     0.0334317 α      in ANC's #2, #5, #3, ...

   *** GEOMETRY OPTIMIZATION CONVERGED AFTER 64 ITERATIONS ***

------------------------------------------------------------------------
 total energy gain   :        -0.0087817 Eh       -5.5106 kcal/mol
 total RMSD          :         1.5808141 a0        0.8365 Å
 total power (kW/mol):        -0.3602559 (step)   -4.9781 (real)
------------------------------------------------------------------------

 ANCopt (total)                0 d,  0 h,  0 min,  4.632 sec
 optimizer setup                ...        0 min,  0.009 sec (  0.199%)
 model hessian                  ...        0 min,  0.075 sec (  1.617%)
 ANC generation                 ...        0 min,  0.016 sec (  0.351%)
 coordinate transformation      ...        0 min,  0.005 sec (  0.113%)
 single point calculation       ...        0 min,  4.420 sec ( 95.432%)
 optimization log               ...        0 min,  0.075 sec (  1.611%)
 hessian update                 ...        0 min,  0.005 sec (  0.114%)
 rational function              ...        0 min,  0.021 sec (  0.450%)

================
 final structure:
================
41
 xtb: 6.4.1 (afa7bdf)
[...]
H13-C6-C1=119.14               H13-C6-C5=119.61               C8-O7-C1=118.89                H9-C8-O7=111.35                
H10-C8-O7=105.32               H10-C8-H9=109.47               H11-C8-O7=111.25               H11-C8-H9=109.83               
H11-C8-H10=109.51              
 
 selected dihedral angles (degree)
 ---------------------------------
C3-C2-C1-C6=359.88            C3-C2-C1-O7=179.82            H14-C2-C1-C6=179.99           H14-C2-C1-O7=359.94           
C4-C3-C2-C1=  0.29            C4-C3-C2-H14=180.17           H15-C3-C2-C1=180.27           H15-C3-C2-H14=  0.16          
C5-C4-C3-C2=359.82            C5-C4-C3-H15=179.83           H16-C4-C3-C2=180.35           H16-C4-C3-H15=  0.37          
C6-C5-C4-C3=359.92            C6-C5-C4-H16=179.38           C12-C5-C4-C3=180.51           C12-C5-C4-H16=359.96          
C5-C6-C1-C2=359.86            C5-C6-C1-O7=179.91            H13-C6-C1-C2=179.96           H13-C6-C1-O7=  0.00           
C1-C6-C5-C4=  0.24            C1-C6-C5-C12=179.69           H13-C6-C5-C4=180.14           H13-C6-C5-C12=359.59          
C8-O7-C1-C2=  0.46            C8-O7-C1-C6=180.40            H9-C8-O7-C1=299.08            H10-C8-O7-C1=180.52           
H11-C8-O7-C1= 61.95           
           -------------------------------------------------
          |                Final Singlepoint                |
           -------------------------------------------------

          ...................................................
          :                      SETUP                      :
          :.................................................:
          :  # basis functions                 110          :
          :  # atomic orbitals                 110          :
          :  # shells                           64          :
          :  # electrons                       120          :
          :  max. iterations                   250          :
          :  Hamiltonian                  GFN2-xTB          :
          :  restarted?                      false          :
          :  GBSA solvation                   true          :
          :  PC potential                    false          :
          :  electronic temp.          300.0000000     K    :
          :  accuracy                    1.0000000          :
          :  -> integral cutoff          0.2500000E+02      :
          :  -> integral neglect         0.1000000E-07      :
          :  -> SCF convergence          0.1000000E-05 Eh   :
          :  -> wf. convergence          0.1000000E-03 e    :
          :  Broyden damping             0.4000000          :
          ...................................................

 iter      E             dE          RMSdq      gap      omega  full diag
   1    -68.9861071 -0.689861E+02  0.209E-04    2.79       0.0  T
   2    -68.9861071 -0.270489E-09  0.137E-04    2.79     114.3  T
   3    -68.9861071 -0.134477E-09  0.871E-05    2.79     179.4  T

   *** convergence criteria satisfied after 3 iterations ***

         #    Occupation            Energy/Eh            Energy/eV
      -------------------------------------------------------------
         1        2.0000           -0.7446331             -20.2625
       ...           ...                  ...                  ...
        54        2.0000           -0.4205301             -11.4432
        55        2.0000           -0.4204428             -11.4408
        56        2.0000           -0.4158539             -11.3160
        57        2.0000           -0.4152148             -11.2986
        58        2.0000           -0.4072952             -11.0831
        59        2.0000           -0.3971643             -10.8074
        60        2.0000           -0.3919720             -10.6661 (HOMO)
        61                         -0.2893526              -7.8737 (LUMO)
        62                         -0.2741682              -7.4605
        63                         -0.2322930              -6.3210
        64                         -0.2303140              -6.2672
        65                         -0.1996870              -5.4338
       ...                                ...                  ...
       110                          0.6792903              18.4844
      -------------------------------------------------------------
                  HL-Gap            0.1026194 Eh            2.7924 eV
             Fermi-level           -0.3406623 Eh           -9.2699 eV

 SCC (total)                   0 d,  0 h,  0 min,  0.053 sec
 SCC setup                      ...        0 min,  0.002 sec (  3.608%)
 Dispersion                     ...        0 min,  0.001 sec (  1.985%)
 classical contributions        ...        0 min,  0.000 sec (  0.205%)
 integral evaluation            ...        0 min,  0.008 sec ( 14.413%)
 iterations                     ...        0 min,  0.023 sec ( 44.188%)
 molecular gradient             ...        0 min,  0.018 sec ( 34.224%)
 printout                       ...        0 min,  0.001 sec (  1.174%)

         :::::::::::::::::::::::::::::::::::::::::::::::::::::
         ::                     SUMMARY                     ::
         :::::::::::::::::::::::::::::::::::::::::::::::::::::
         :: total energy             -68.076801916538 Eh    ::
         :: total w/o Gsasa/hb       -68.048245384172 Eh    ::
         :: gradient norm              0.000893338110 Eh/a0 ::
         :: HOMO-LUMO gap              2.792415006440 eV    ::
         ::.................................................::
         :: SCC energy               -68.986107140129 Eh    ::
         :: -> isotropic ES            0.125332743774 Eh    ::
         :: -> anisotropic ES          0.000022174397 Eh    ::
         :: -> anisotropic XC          0.018308079423 Eh    ::
         :: -> dispersion             -0.039304455954 Eh    ::
         :: -> Gsolv                  -0.039284841319 Eh    ::
         ::    -> Gelec               -0.010728308953 Eh    ::
         ::    -> Gsasa               -0.028839319661 Eh    ::
         ::    -> Ghb                 -0.005042028148 Eh    ::
         ::    -> Gshift               0.005324815444 Eh    ::
         :: repulsion energy           0.909631474264 Eh    ::
         :: add. restraining           0.000000000000 Eh    ::
         :: total charge               0.000000000000 e     ::
         :::::::::::::::::::::::::::::::::::::::::::::::::::::

           -------------------------------------------------
          |                Property Printout                |
           -------------------------------------------------

    * Orbital Energies and Occupations

         #    Occupation            Energy/Eh            Energy/eV
      -------------------------------------------------------------
         1        2.0000           -0.7446331             -20.2625
       ...           ...                  ...                  ...
        48        2.0000           -0.4580577             -12.4644
        49        2.0000           -0.4543839             -12.3644
        50        2.0000           -0.4483565             -12.2004
        51        2.0000           -0.4440384             -12.0829
        52        2.0000           -0.4345672             -11.8252
        53        2.0000           -0.4282817             -11.6541
        54        2.0000           -0.4205301             -11.4432
        55        2.0000           -0.4204428             -11.4408
        56        2.0000           -0.4158539             -11.3160
        57        2.0000           -0.4152148             -11.2986
        58        2.0000           -0.4072952             -11.0831
        59        2.0000           -0.3971643             -10.8074
        60        2.0000           -0.3919720             -10.6661 (HOMO)
        61                         -0.2893526              -7.8737 (LUMO)
        62                         -0.2741682              -7.4605
        63                         -0.2322930              -6.3210
        64                         -0.2303140              -6.2672
        65                         -0.1996870              -5.4338
        66                         -0.1909155              -5.1951
        67                         -0.0941017              -2.5606
        68                         -0.0931561              -2.5349
        69                          0.0104725               0.2850
        70                          0.0151121               0.4112
        71                          0.0546830               1.4880
       ...                                ...                  ...
       110                          0.6792903              18.4844
      -------------------------------------------------------------
                  HL-Gap            0.1026194 Eh            2.7924 eV
             Fermi-level           -0.3406623 Eh           -9.2699 eV

     #   Z          covCN         q      C6AA      α(0)
     1   6 C        2.861     0.147    24.792     8.161
     2   6 C        2.917    -0.061    29.519     8.909
     3   6 C        2.919    -0.033    28.831     8.805
     4   6 C        2.918    -0.045    29.120     8.849
     5   6 C        2.970    -0.017    28.427     8.746
     6   6 C        2.928    -0.046    29.145     8.853
     7   8 O        1.705    -0.279    18.635     5.828
     8   6 C        3.642     0.019    20.612     6.527
     9   1 H        0.924     0.054     2.268     2.355
    10   1 H        0.925     0.080     1.980     2.201
    11   1 H        0.924     0.054     2.268     2.355
    12   6 C        2.822     0.235    23.081     7.872
    13   1 H        0.926     0.070     2.081     2.256
    14   1 H        0.926     0.058     2.227     2.333
    15   1 H        0.926     0.059     2.216     2.328
    16   1 H        0.926     0.056     2.245     2.343
    17   8 O        0.857    -0.412    21.912     6.276
    18   6 C        3.805    -0.104    22.478     6.749
    19   6 C        3.731     0.122    18.671     6.168
    20   8 O        1.656    -0.477    22.399     6.389
    21   6 C        2.973     0.014    27.686     8.631
    22   1 H        0.923     0.027     2.628     2.535
    23   6 C        2.922    -0.029    28.725     8.789
    24   1 H        0.804     0.339     0.615     1.231
    25   6 C        2.921    -0.040    28.988     8.829
    26   6 C        2.920    -0.026    28.654     8.778
    27   6 C        2.972    -0.026    28.647     8.779
    28   6 C        2.923    -0.023    28.575     8.766
    29   1 H        0.926     0.051     2.311     2.377
    30   1 H        0.926     0.073     2.055     2.241
    31   1 H        0.926     0.065     2.140     2.288
    32   1 H        0.926     0.062     2.176     2.307
    33   6 C        2.727     0.350    21.061     7.513
    34   8 O        1.704    -0.268    18.441     5.798
    35   6 C        3.652     0.017    20.606     6.519
    36   1 H        0.924     0.071     2.079     2.255
    37   1 H        0.924     0.070     2.086     2.259
    38   1 H        0.925     0.090     1.880     2.144
    39   8 O        0.856    -0.462    22.958     6.424
    40   1 H        0.924     0.089     1.886     2.147
    41   1 H        0.925     0.075     2.029     2.227

 Mol. C6AA /au·bohr⁶  :      19504.778660
 Mol. C8AA /au·bohr⁸  :     465539.989862
 Mol. α(0) /au        :        217.145405


Wiberg/Mayer (AO) data.
largest (>0.10) Wiberg bond orders for each atom

 ---------------------------------------------------------------------------
     #   Z sym  total        # sym  WBO       # sym  WBO       # sym  WBO
 ---------------------------------------------------------------------------
     1   6 C    3.938 --     2 C    1.364     6 C    1.358     7 O    1.074
     2   6 C    3.989 --     3 C    1.427     1 C    1.364    14 H    0.965
     3   6 C    3.990 --     4 C    1.464     2 C    1.427    15 H    0.968
                             6 C    0.101
     4   6 C    3.990 --     3 C    1.464     5 C    1.356    16 H    0.965
     5   6 C    3.986 --     6 C    1.401     4 C    1.356    12 C    1.039
     6   6 C    3.987 --     5 C    1.401     1 C    1.358    13 H    0.963
                             3 C    0.101
     7   8 O    2.235 --     1 C    1.074     8 C    0.973
     8   6 C    3.933 --    10 H    0.978    11 H    0.976     9 H    0.976
                             7 O    0.973
     9   1 H    0.997 --     8 C    0.976
    10   1 H    0.993 --     8 C    0.978
    11   1 H    0.997 --     8 C    0.976
    12   6 C    3.914 --    17 O    1.777     5 C    1.039    18 C    0.997
    13   1 H    0.995 --     6 C    0.963
    14   1 H    0.996 --     2 C    0.965
    15   1 H    0.996 --     3 C    0.968
    16   1 H    0.997 --     4 C    0.965
    17   8 O    2.037 --    12 C    1.777
    18   6 C    3.993 --    12 C    0.997    19 C    0.963    41 H    0.951
                            40 H    0.940
    19   6 C    3.962 --    20 O    1.002    21 C    0.993    18 C    0.963
                            22 H    0.954
    20   8 O    1.939 --    19 C    1.002    24 H    0.857
    21   6 C    3.986 --    23 C    1.406    25 C    1.399    19 C    0.993
    22   1 H    0.998 --    19 C    0.954
    23   6 C    3.988 --    26 C    1.459    21 C    1.406    30 H    0.964
                            28 C    0.103
    24   1 H    0.885 --    20 O    0.857
    25   6 C    3.989 --    28 C    1.467    21 C    1.399    29 H    0.967
                            26 C    0.104
    26   6 C    3.988 --    23 C    1.459    27 C    1.382    31 H    0.965
                            25 C    0.104
    27   6 C    3.985 --    26 C    1.382    28 C    1.375    33 C    1.015
    28   6 C    3.988 --    25 C    1.467    27 C    1.375    32 H    0.965
                            23 C    0.103
    29   1 H    0.997 --    25 C    0.967
    30   1 H    0.994 --    23 C    0.964
    31   1 H    0.995 --    26 C    0.965
    32   1 H    0.996 --    28 C    0.965
    33   6 C    3.913 --    39 O    1.687    34 O    1.132    27 C    1.015
    34   8 O    2.303 --    33 C    1.132    35 C    0.950    39 O    0.166
    35   6 C    3.914 --    38 H    0.979    36 H    0.976    37 H    0.976
                            34 O    0.950
    36   1 H    0.995 --    35 C    0.976
    37   1 H    0.995 --    35 C    0.976
    38   1 H    0.992 --    35 C    0.979
    39   8 O    1.988 --    33 C    1.687    34 O    0.166
    40   1 H    0.992 --    18 C    0.940
    41   1 H    0.994 --    18 C    0.951
 ---------------------------------------------------------------------------

Topologies differ in total number of bonds
Writing topology from bond orders to xtbtopo.mol

molecular dipole:
                 x           y           z       tot (Debye)
 q only:       -2.182      -1.200       0.031
   full:       -2.396      -1.289       0.223       6.938
molecular quadrupole (traceless):
                xx          xy          yy          xz          yz          zz
 q only:        0.544     -17.427      -0.115     -21.208      11.722      -0.429
  q+dip:        0.176     -18.617       0.864     -19.913      13.324      -1.040
   full:        0.235     -16.836       0.251     -20.104      13.669      -0.486

           -------------------------------------------------
          |                Geometry Summary                 |
           -------------------------------------------------

      molecular mass/u    :      314.3332043
   center of mass at/Å    :        2.8172605       0.9191947      -0.0874971
  moments of inertia/u·Å² :        0.6654096E+03   0.6694761E+04   0.7036880E+04
rotational constants/cm⁻¹ :        0.2533422E-01   0.2518033E-02   0.2395612E-02

 * 37 selected distances

     #   Z          #   Z                                           value/Å
     1   6 C        2   6 C                                       1.3927264
     2   6 C        3   6 C                                       1.3870639
     3   6 C        4   6 C                                       1.3804258
     4   6 C        5   6 C                                       1.3978163
     1   6 C        6   6 C                                       1.3933400
     5   6 C        6   6 C                                       1.3914396
     1   6 C        7   8 O                                       1.3577067
     7   8 O        8   6 C                                       1.4144730
     8   6 C        9   1 H                                       1.0935784
     8   6 C       10   1 H                                       1.0882645
     8   6 C       11   1 H                                       1.0937776
     6   6 C       13   1 H                                       1.0790635
     2   6 C       14   1 H                                       1.0779832
     3   6 C       15   1 H                                       1.0794394
     4   6 C       16   1 H                                       1.0768500
    12   6 C       17   8 O                                       1.2190723
    19   6 C       20   8 O                                       1.4073601
    19   6 C       22   1 H                                       1.1028498
    21   6 C       23   6 C                                       1.3898996
    20   8 O       24   1 H                                       0.9689031 (min)
    21   6 C       25   6 C                                       1.3915409
    23   6 C       26   6 C                                       1.3812854
    26   6 C       27   6 C                                       1.3935865
    25   6 C       28   6 C                                       1.3798014
    27   6 C       28   6 C                                       1.3951271
    25   6 C       29   1 H                                       1.0801438
    23   6 C       30   1 H                                       1.0784060
    26   6 C       31   1 H                                       1.0782485
    28   6 C       32   1 H                                       1.0797458
    33   6 C       34   8 O                                       1.3379441
    34   8 O       35   6 C                                       1.4254191 (max)
    35   6 C       36   1 H                                       1.0921577
    35   6 C       37   1 H                                       1.0920930
    35   6 C       38   1 H                                       1.0867124
    33   6 C       39   8 O                                       1.2145086
    18   6 C       40   1 H                                       1.0926250
    18   6 C       41   1 H                                       1.0898041

 * 4 distinct bonds (by element types)

   Z      Z             #   av. dist./Å        max./Å        min./Å
   1 H    6 C          17     1.0859848     1.1028498     1.0768500
   6 C    6 C          12     1.3895044     1.3978163     1.3798014
   1 H    8 O           1     0.9689031     0.9689031     0.9689031
   6 C    8 O           7     1.3394977     1.4254191     1.2145086


optimized geometry written to: xtbopt.xyz


           -------------------------------------------------
          | TOTAL ENERGY              -68.076801916538 Eh   |
          | GRADIENT NORM               0.000893338110 Eh/α |
          | HOMO-LUMO GAP               2.792415006440 eV   |
           -------------------------------------------------

------------------------------------------------------------------------
 * finished run on 2022/02/28 at 12:01:27.491     
------------------------------------------------------------------------
 total:
 * wall-time:     0 d,  0 h,  0 min,  5.862 sec
 *  cpu-time:     0 d,  0 h,  0 min, 20.651 sec
 * ratio c/w:     3.523 speedup
 SCF:
 * wall-time:     0 d,  0 h,  0 min,  0.118 sec
 *  cpu-time:     0 d,  0 h,  0 min,  0.472 sec
 * ratio c/w:     3.995 speedup
 ANC optimizer:
 * wall-time:     0 d,  0 h,  0 min,  4.926 sec
 *  cpu-time:     0 d,  0 h,  0 min, 19.378 sec
 * ratio c/w:     3.934 speedup

