41
 energy: -68.068020206064 gnorm: 0.059562668486 xtb: 6.4.1 (afa7bdf)
C        -2.65690579290000    2.26852488450000    0.04114792500000
C        -2.87992967300000    0.89859101330000    0.17812882000000
C        -1.79971615930000    0.01723792230000    0.26136448280000
C        -0.49052749370000    0.49867279660000    0.20463133970000
C        -0.25429920230000    1.87109187150000    0.06558290540000
C        -1.34442376250000    2.74864279630000   -0.00861972920000
O        -3.62267285900000    3.23195136380000   -0.05373293060000
C        -4.97373409120000    2.78945362110000   -0.09597834540000
H        -5.14982462970000    2.13844284310000   -0.95891582320000
H        -5.61146747960000    3.67137982110000   -0.20890160150000
H        -5.25462119520000    2.29238320080000    0.83830596520000
C         1.12756257320000    2.43591680400000   -0.02837446490000
H        -1.17856592740000    3.81937423960000   -0.11700847460000
H        -3.88168269200000    0.48372275050000    0.22456243470000
H        -1.98121132310000   -1.05012374060000    0.36795117540000
H         0.32060548470000   -0.22026335970000    0.26943551310000
O         1.28725672900000    3.65392642720000   -0.09118396410000
C         2.29729636280000    1.47313548840000   -0.08693474050000
C         3.62835532810000    2.21299699810000   -0.26237476220000
O         3.67419074360000    2.81887522390000   -1.55293558240000
C         4.84224243670000    1.30847076740000   -0.15163036580000
H         3.71110643910000    3.00980417410000    0.48807824860000
C         4.86692374590000    0.01869700950000   -0.70554629510000
H         3.04097152300000    3.56325608050000   -1.51365724100000
C         5.99999837980000    1.77933320530000    0.48824701010000
C         5.99550365990000   -0.79789384010000   -0.57897013630000
C         7.13314559630000   -0.32971501210000    0.08713693500000
C         7.13401234800000    0.96903540030000    0.60806782570000
H         6.03061626570000    2.78957547780000    0.89283776720000
H         4.01267282260000   -0.36535309360000   -1.25720363690000
H         5.97376439260000   -1.79293833250000   -1.01630130100000
H         8.01854542470000    1.35847870690000    1.10893722460000
C         8.35391559390000   -1.16288680410000    0.25865598590000
O         8.11660530380000   -2.44008063520000   -0.13445979910000
C         9.22999168980000   -3.31773151620000    0.03650168310000
H         9.54606663400000   -3.34247196770000    1.08424375740000
H        10.05691876660000   -3.01387082090000   -0.61246090680000
H         8.91399942730000   -4.32434301270000   -0.25131773780000
O         9.40288272950000   -0.74085941650000    0.71934152350000
H         2.12178847310000    0.80926623840000   -0.94117337160000
H         2.31705909750000    0.89370146520000    0.84297264850000
41
 energy: -68.072691602823 gnorm: 0.021856968914 xtb: 6.4.1 (afa7bdf)
C        -2.64642354568532    2.26558370248606    0.03911173011378
C        -2.86992997644871    0.89921276638656    0.17661429539861
C        -1.79178916962243    0.02823165404567    0.26012585567433
C        -0.48992704508708    0.49751846024369    0.20379720221378
C        -0.24963417328468    1.86617194205872    0.06547410441536
C        -1.33451637440335    2.73936113922232   -0.00877710219188
O        -3.61874699664596    3.21721944300301   -0.05647654422079
C        -4.96906864735849    2.78686328587502   -0.09358506155558
H        -5.14673899440052    2.12874540486181   -0.94881913677660
H        -5.57684213799454    3.68657318365592   -0.20699653630934
H        -5.24907594265532    2.28512866892702    0.83690650179145
C         1.12148996391646    2.43816200307515   -0.02942495764883
H        -1.16664304212543    3.80214091227241   -0.11595781091103
H        -3.86934253332612    0.49147556157842    0.22073946419329
H        -1.97540725494120   -1.03131187687088    0.36845073264245
H         0.31939412785806   -0.21311015528850    0.27090762171167
O         1.28947643504797    3.64600748234071   -0.09463834923425
C         2.29083917331955    1.47572159531284   -0.08274456317496
C         3.62953225470976    2.20826783525901   -0.26992260524800
O         3.68552220233981    2.82258434766101   -1.55423095253793
C         4.84027057816299    1.30168220925774   -0.14753972174165
H         3.70667193805217    2.99163777775801    0.49777605907238
C         4.86666216046536    0.02297345495820   -0.70071628137732
H         3.04936799885201    3.55593458072934   -1.53558639072627
C         5.98925318369409    1.77052165627469    0.48819108658462
C         5.98699447910851   -0.78469142358982   -0.58154522032003
C         7.12019784332547   -0.32094627768845    0.08299518594956
C         7.11757445464033    0.97362531809567    0.60001162618435
H         6.01099092877934    2.77170842741106    0.89721287497927
H         4.01261693899332   -0.35764959715371   -1.24094709228269
H         5.97435853499674   -1.77634329438080   -1.01003385733087
H         7.99942401202394    1.34997200342035    1.10090418396184
C         8.33151192321950   -1.16105937453959    0.26271162125960
O         8.12631394224993   -2.43380422407240   -0.12558235879897
C         9.23271337835594   -3.31864155223262    0.03452092415925
H         9.55714994595408   -3.33080992549868    1.07713651346375
H        10.06257108783279   -3.00422780760630   -0.60156477640156
H         8.89088181514750   -4.31158287178161   -0.26067102104638
O         9.37896628063451   -0.75051406061649    0.71180791442082
H         2.12428935745353    0.80728803780725   -0.92956588699791
H         2.31346658514548    0.88978662694220    0.83838068954262
41
 energy: -68.073498347879 gnorm: 0.008023474579 xtb: 6.4.1 (afa7bdf)
C        -2.63480997359792    2.26404909760861    0.03629982644715
C        -2.85991843883164    0.89800954063880    0.17430256542601
C        -1.78208426505239    0.03084741311175    0.26039128251493
C        -0.48275573282822    0.49261136664230    0.20513622750255
C        -0.24105515376454    1.86116558100300    0.06493940779824
C        -1.32275244713556    2.73337590515612   -0.01025945550380
O        -3.60961839086712    3.20811133306002   -0.06044107091921
C        -4.96011661710785    2.78606195766343   -0.09045284745362
H        -5.14668302237942    2.12349341854985   -0.94017565373143
H        -5.54680545261573    3.69688812224971   -0.20392377006111
H        -5.24183290499511    2.28551943282548    0.83993147740022
C         1.12186705820686    2.43971226561504   -0.03308093583300
H        -1.15169578687142    3.79266980413602   -0.11717936840852
H        -3.85961046860736    0.49709016348764    0.21640916211122
H        -1.96861039606809   -1.02558836974573    0.37020824528765
H         0.32795195344339   -0.21205355845881    0.27299299331235
O         1.29579095298808    3.64298013494748   -0.10426272294697
C         2.28740443886831    1.47257740998171   -0.08473708801235
C         3.62702464733845    2.20898252037543   -0.27057043095182
O         3.69408295595935    2.81958473962532   -1.55147353454099
C         4.83298995032279    1.29866681209785   -0.14547820753725
H         3.70121580778281    2.98664685641526    0.50579912055138
C         4.85670445491557    0.02346912181854   -0.69819718285853
H         3.05560262822811    3.54646787066486   -1.55621488157257
C         5.97633480540747    1.76655434766864    0.49352983232634
C         5.97339364593157   -0.78141589008164   -0.58039091689791
C         7.10529036351679   -0.31753257634786    0.08384459426951
C         7.10059949402445    0.97349715003065    0.60641430623289
H         5.99005552033045    2.76348393119249    0.90654421895291
H         4.00091574535977   -0.35282836834325   -1.23356622079251
H         5.97330716082083   -1.77047260575518   -1.00878122453114
H         7.98631689573834    1.34142028339121    1.10115279324335
C         8.31699763911795   -1.15396935575751    0.25355734262229
O         8.12758703099331   -2.42432047664103   -0.12477541006376
C         9.23128792839310   -3.31205219014395    0.03303879102337
H         9.56229177092151   -3.32017481838097    1.07310305317442
H        10.06340961135454   -2.99607906067136   -0.59841389714002
H         8.87129773335260   -4.29405696968258   -0.26569948341024
O         9.36467504955670   -0.75386963160481    0.71026750743879
H         2.12385797842954    0.79824649976101   -0.92617192578549
H         2.31451151971973    0.88763783149647    0.83483344221664
41
 energy: -68.073622559202 gnorm: 0.003527723069 xtb: 6.4.1 (afa7bdf)
C        -2.62936814493338    2.26281207348522    0.03407645562471
C        -2.85465061460838    0.89603891860842    0.17308861146742
C        -1.77666865395962    0.02859502255826    0.26139345865254
C        -0.47719217880398    0.48897984672636    0.20649488520386
C        -0.23661144860008    1.85832774232853    0.06410865552125
C        -1.31740191404674    2.73099336811866   -0.01216201937549
O        -3.60331124154324    3.20543473024632   -0.06392578258215
C        -4.95474747054923    2.78795878065152   -0.08760311776153
H        -5.14843302017932    2.12342063833692   -0.93456718616904
H        -5.53517730988171    3.70165241681784   -0.20094617213199
H        -5.23551376118202    2.29056627815344    0.84503636292820
C         1.12303277103909    2.43910628453115   -0.03777773491895
H        -1.14384218309051    3.79003392926209   -0.12017271256420
H        -3.85514430917243    0.49770629168760    0.21404000606866
H        -1.96448149274153   -1.02791263591664    0.37281097621454
H         0.33544022989818   -0.21336880374919    0.27605685683048
O         1.29793798196696    3.64199820062828   -0.11293072190130
C         2.28754447996384    1.47127168815692   -0.08731096500622
C         3.62593282136916    2.20940990002954   -0.27255051070964
O         3.69998385658566    2.81641366286439   -1.55195297751606
C         4.82845795331114    1.29711751366237   -0.14259504933090
H         3.69641573783876    2.98627165141735    0.50526235369410
C         4.85025625830348    0.02231620520835   -0.69709633745218
H         3.05761321932161    3.53942950724658   -1.57014426145706
C         5.96953234509917    1.76582190835041    0.50023495833044
C         5.96768412332979   -0.78169456250939   -0.58070151655696
C         7.09901231587929   -0.31581254015939    0.08449145257838
C         7.09503760553907    0.97445541073747    0.61017350597053
H         5.97802783043030    2.76178917485213    0.91618961442129
H         3.99296544418302   -0.35158961980284   -1.23222885599905
H         5.97221914150539   -1.77180503754325   -1.00706788164396
H         7.98100530683966    1.33637236225121    1.10907623949134
C         8.30741410800728   -1.15243274292994    0.26018942760952
O         8.12389447980462   -2.41978841129644   -0.12488321161570
C         9.22917681805506   -3.30651530690668    0.02888636661910
H         9.56167907519875   -3.31693038868293    1.06863079313236
H        10.06107190566263   -2.98768457399686   -0.60182269682426
H         8.86598405887929   -4.28502490379612   -0.27289522820435
O         9.35899929990949   -0.75211639681034    0.71270629978009
H         2.12463718434958    0.79484733215402   -0.92710298645122
H         2.31600308132189    0.88894212462870    0.83394060693339
41
 energy: -68.073682867228 gnorm: 0.002560868812 xtb: 6.4.1 (afa7bdf)
C        -2.62528298738558    2.26102915633395    0.03120000338958
C        -2.85001120936244    0.89359209372836    0.17203985531028
C        -1.77202786673734    0.02551796461768    0.26310091773193
C        -0.47220094676712    0.48579598992914    0.20822208594746
C        -0.23323159832280    1.85566926832272    0.06247793650783
C        -1.31355826010857    2.72872647626710   -0.01556695056405
O        -3.59742670022658    3.20369933335347   -0.06858260102407
C        -4.95022058860860    2.79105793941368   -0.08352052406221
H        -5.15196976288886    2.12451707633101   -0.92736583899564
H        -5.52721264897899    3.70638737531519   -0.19650667619956
H        -5.22770653774455    2.29784841133343    0.85262486453254
C         1.12409825899113    2.43771292870972   -0.04326736388100
H        -1.13739965279052    3.78773649355785   -0.12550650689067
H        -3.85122855132091    0.49669530019080    0.21197236450975
H        -1.96058774064834   -1.03135839166453    0.37641788985884
H         0.34220718395439   -0.21483999486730    0.28015448990693
O         1.29840861522976    3.64081689237168   -0.12459326282730
C         2.28863051975007    1.47087374228267   -0.09092744797947
C         3.62576332585804    2.20985400391855   -0.27573269737258
O         3.70614112242110    2.81212763486670   -1.55448268100313
C         4.82572227461261    1.29660512666241   -0.14013102503087
H         3.69233386884111    2.98780704807963    0.50136910900046
C         4.84572612396397    0.02191468063856   -0.69640164973105
H         3.05859587052067    3.53046945937507   -1.58525433661532
C         5.96363183416020    1.76485144366692    0.50955279378922
C         5.96272844255309   -0.78282383811736   -0.57837967271350
C         7.09273987205468   -0.31575356843257    0.08951552029929
C         7.08864035629129    0.97256392401546    0.62149767111726
H         5.96730082812136    2.76020043858793    0.92803916038805
H         3.98774765959659   -0.34936012055772   -1.23316698609049
H         5.97125108983408   -1.77293124114589   -1.00564841020807
H         7.97555788584020    1.33044529466624    1.12226229638056
C         8.30214110123136   -1.14905298436472    0.25924819178696
O         8.12050552664739   -2.41529165211778   -0.12840371725182
C         9.22687788064567   -3.30117170187933    0.02396922140105
H         9.55980009679602   -3.31302236407028    1.06373571327011
H        10.05779277805450   -2.97999508232673   -0.60713058953659
H         8.86361934522575   -4.27846652758676   -0.27954491002334
O         9.35291239427251   -0.74927677750912    0.71796458683393
H         2.12568795770744    0.79267533481912   -0.92930348314284
H         2.31791852901613    0.89156045288510    0.83250262008149
41
 energy: -68.073714168851 gnorm: 0.002605942184 xtb: 6.4.1 (afa7bdf)
C        -2.62391048378938    2.25961337561722    0.02882525781077
C        -2.84793149612443    0.89210276031907    0.17154545684726
C        -1.77008542941604    0.02384262661959    0.26467636337795
C        -0.47010262997583    0.48461506670190    0.20952054653052
C        -0.23198088337049    1.85434611552619    0.06063896103825
C        -1.31234384202553    2.72733514306435   -0.01901610543869
O        -3.59457913226098    3.20319202859384   -0.07251733565756
C        -4.94836519706244    2.79353520406861   -0.07935908863994
H        -5.15620251590742    2.12562064124780   -0.92065676955323
H        -5.52476825352702    3.70944244517389   -0.19165378941589
H        -5.22154958039496    2.30353154857749    0.85982002604694
C         1.12464968327863    2.43657914400014   -0.04854945611118
H        -1.13486315818774    3.78611498787710   -0.13118562908301
H        -3.84937638094952    0.49517576309431    0.21117620507333
H        -1.95862681392705   -1.03310669815667    0.37950664027497
H         0.34483353495272   -0.21552307822915    0.28322969464008
O         1.29763082480003    3.63993031021799   -0.13511693474907
C         2.28980874133872    1.47117443852141   -0.09408217332745
C         3.62625779620493    2.21050528066126   -0.27902766540932
O         3.70951433357031    2.80822604532872   -1.55881725174755
C         4.82513921771905    1.29697671019716   -0.13837058942530
H         3.69093567476394    2.99101934635719    0.49575163176124
C         4.84499940544300    0.02270067079845   -0.69609543196378
H         3.05816638969532    3.52285274126670   -1.59643834785208
C         5.96043350796781    1.76386733820362    0.51706943180655
C         5.96121266298286   -0.78287126654926   -0.57597452685207
C         7.08958042513417   -0.31612252781099    0.09518728065152
C         7.08488349598536    0.97076676686377    0.63087822693233
H         5.96147588946578    2.75852525388308    0.93748513391655
H         3.98791049299129   -0.34659566215691   -1.23590419328244
H         5.97095218110993   -1.77260976724791   -1.00431212163381
H         7.97084290166172    1.32618795781258    1.13531399230871
C         8.29901637871432   -1.14876190699842    0.26372149350225
O         8.11858801038366   -2.41350135660039   -0.13051385752189
C         9.22641772714929   -3.29818152701570    0.01887589749490
H         9.55932148995183   -3.31211030230577    1.05861431977164
H        10.05601061418522   -2.97400603129428   -0.61244974919540
H         8.86546393512388   -4.27590904489464   -0.28663521552173
O         9.34905710242531   -0.74839008805871    0.72399010848787
H         2.12682355326714    0.79157934199787   -0.93139570689380
H         2.31917551695254    0.89373724432756    0.83069523190148
41
 energy: -68.073754266297 gnorm: 0.002103063845 xtb: 6.4.1 (afa7bdf)
C        -2.62322562683299    2.25809566724250    0.02554299071449
C        -2.84665852499419    0.89089438649060    0.17058697850323
C        -1.76903546584171    0.02270227733429    0.26610726568713
C        -0.46893054646948    0.48392911145747    0.21061989473539
C        -0.23119956809598    1.85309450119269    0.05780933126073
C        -1.31170758457380    2.72576549064734   -0.02397592313623
O        -3.59224860161032    3.20312525532847   -0.07768770937226
C        -4.94709898445739    2.79669176650912   -0.07258617917272
H        -5.16327120491462    2.12728013952907   -0.91043596526173
H        -5.52326595264577    3.71337281236324   -0.18301492596724
H        -5.21326183283605    2.31031125293167    0.87045632398539
C         1.12511850829354    2.43539226229469   -0.05558465513339
H        -1.13324634279913    3.78403295822626   -0.13913197310569
H        -3.84815770517158    0.49341333292254    0.20987769317874
H        -1.95732006523185   -1.03404959059921    0.38272101844923
H         0.34588266346931   -0.21621791446360    0.28663239382271
O         1.29613461760579    3.63876132197766   -0.14961225611488
C         2.29121722323242    1.47179687785488   -0.09756527691948
C         3.62703326476118    2.21140485549845   -0.28422401893924
O         3.71214896134914    2.80196675458036   -1.56697783442738
C         4.82523526729292    1.29801533161590   -0.13653366571844
H         3.69025892414646    2.99655864507675    0.48617899201775
C         4.84633308538563    0.02484835542049   -0.69668245937783
H         3.05606077117045    3.51159090222946   -1.61165504623067
C         5.95673750757228    1.76213145071295    0.52719021543189
C         5.96108125415608   -0.78195988230500   -0.57293928550616
C         7.08661241322846   -0.31702907112314    0.10404987749098
C         7.08005554568632    0.96779030961395    0.64438296734255
H         5.95545595612608    2.75563243446313    0.95018629150092
H         3.99154151875126   -0.34198230880590   -1.24172155369219
H         5.97145326194062   -1.77076203265579   -1.00323085491413
H         7.96372375675053    1.32091823498569    1.15439458921397
C         8.29683106144807   -1.14930426336449    0.27031115451138
O         8.11761690722028   -2.41205600271340   -0.13282880284685
C         9.22723549370125   -3.29517049488946    0.01223783213420
H         9.56073276730853   -3.31174385697391    1.05166478140038
H        10.05489326675736   -2.96724029420796   -0.61950105979694
H         8.86945749823903   -4.27382621254434   -0.29577076576470
O         9.34493663425834   -0.74914653704207    0.73404400867094
H         2.12867519085426    0.79010988829511   -0.93335928277820
H         2.32058037606919    0.89626892449361    0.82847485502422
41
 energy: -68.073802738518 gnorm: 0.002303513244 xtb: 6.4.1 (afa7bdf)
C        -2.62285434145942    2.25701515492249    0.02120947144574
C        -2.84616365790595    0.89043657436418    0.16931796247370
C        -1.76868026964385    0.02253758430288    0.26741875253790
C        -0.46846238779966    0.48372731105837    0.21112346526309
C        -0.23063750692490    1.85205668736650    0.05333844802543
C        -1.31125200290280    2.72429038262647   -0.03091754847383
O        -3.59051645186521    3.20342112767283   -0.08393508407279
C        -4.94630701464427    2.80028217354900   -0.06249968363827
H        -5.17356812273119    2.12903833686078   -0.89578166573828
H        -5.52194317988261    3.71804455986563   -0.16948342872262
H        -5.20255401419590    2.31770830412386    0.88516786999232
C         1.12543039650150    2.43453850424925   -0.06514497166828
H        -1.13235193056689    3.78186562268347   -0.14993691674576
H        -3.84758809393029    0.49237622979963    0.20869581915779
H        -1.95670464674295   -1.03378332370350    0.38644640848619
H         0.34577615583626   -0.21675113020557    0.28984282238446
O         1.29438941778271    3.63745190442933   -0.16921966786446
C         2.29254900465794    1.47263210960288   -0.10132911845356
C         3.62793083439659    2.21226912167286   -0.29155345927866
O         3.71405991133476    2.79206125614632   -1.57946240367538
C         4.82547479027504    1.29931212585992   -0.13482787385172
H         3.69009256724225    3.00439177688086    0.47202024382334
C         4.84956406934774    0.02813085149467   -0.69903940337380
H         3.05281822229061    3.49597188510197   -1.63241667300561
C         5.95156469672036    1.75919798307738    0.54060687415206
C         5.96241753144168   -0.78011046691944   -0.57016996635299
C         7.08360199025393   -0.31847188636556    0.11595384644259
C         7.07340369376065    0.96344039469946    0.66261365263516
H         5.94777431090414    2.75071992192105    0.96799269659506
H         3.99872900034294   -0.33543963389776   -1.25221079604586
H         5.97400637787557   -1.76715904601686   -1.00410414294536
H         7.95326134951377    1.31413431073887    1.18074526499465
C         8.29484023785313   -1.15070300276887    0.28034473711431
O         8.11803691724371   -2.41052257465231   -0.13466273142791
C         9.22981092030616   -3.29179827060983    0.00399972100284
H         9.56531026180796   -3.31209937301956    1.04263372234525
H        10.05498188464223   -2.95922364043321   -0.62836231296417
H         8.87481021713604   -4.27087617979225   -0.30744274186804
O         9.34029063777121   -0.75205421998159    0.74979288099195
H         2.13117118476215    0.78747418731572   -0.93467037499710
H         2.32190272949473    0.89987340557978    0.82635626620044
41
 energy: -68.073859852472 gnorm: 0.002729332315 xtb: 6.4.1 (afa7bdf)
C        -2.62278343879297    2.25694268812409    0.01635052424547
C        -2.84648550980949    0.89114321768850    0.16841131846763
C        -1.76898484188257    0.02361901715905    0.26870350549132
C        -0.46865894637806    0.48419970800142    0.21054621430292
C        -0.23037674292176    1.85160929933339    0.04695357562964
C        -1.31101023073426    2.72345510176318   -0.03966509908585
O        -3.58979262584278    3.20414947009663   -0.09024259957469
C        -4.94611632785516    2.80389184520692   -0.04947930745101
H        -5.18616008977192    2.13067870113088   -0.87747471661664
H        -5.52109141314037    3.72273398715367   -0.15158685939919
H        -5.19028330235515    2.32471322406115    0.90305588986413
C         1.12548805869544    2.43414903651026   -0.07704684614690
H        -1.13233761906960    3.78035380361799   -0.16320817230150
H        -3.84776339957778    0.49281067171181    0.20886400187553
H        -1.95690763448006   -1.03216841002059    0.39085008203270
H         0.34485067836056   -0.21673191912213    0.29182807483517
O         1.29282257087011    3.63608879124154   -0.19313313868794
C         2.29356088014606    1.47342569727284   -0.10505347450782
C         3.62883086448806    2.21249267763247   -0.30071227945184
O         3.71526727729578    2.77842987082256   -1.59545871485024
C         4.82551176967586    1.30017164180789   -0.13361893465046
H         3.69041145864147    3.01330677088622    0.45396031465078
C         4.85463998640506    0.03202731229003   -0.70419097378256
H         3.04989388465659    3.47732664932467   -1.65737922077788
C         5.94456532705724    1.75472867929987    0.55675207435477
C         5.96561270429878   -0.77748797000147   -0.56927372495519
C         7.08080101537858   -0.32038072265892    0.12948172228397
C         7.06493578670120    0.95769721966850    0.68459905000079
H         5.93782856338832    2.74345592378241    0.99046509807378
H         4.00931450806970   -0.32753470048294   -1.26827729683881
H         5.97976681928562   -1.76195381667067   -1.00875481351878
H         7.93954524352609    1.30578656390000    1.21330015518328
C         8.29294990490066   -1.15255199010854    0.29324843345620
O         8.12021683265866   -2.40857812352031   -0.13576007919106
C         9.23420057055458   -3.28805619164820   -0.00486668563365
H         9.57301132115789   -3.31300040395855    1.03255413817501
H        10.05663667221212   -2.95041070440966   -0.63802072471957
H         8.88086871570334   -4.26662354791860   -0.32045362922996
O         9.33499632321982   -0.75673845291285    0.77157256432074
H         2.13388893589110    0.78306526762119   -0.93464743131942
H         2.32275113967300    0.90517115592441    0.82525794634691
41
 energy: -68.073932746119 gnorm: 0.002700525010 xtb: 6.4.1 (afa7bdf)
C        -2.62301915015618    2.25821682485529    0.01135066566945
C        -2.84748226228675    0.89328624654994    0.16866960692634
C        -1.76984515154873    0.02609686186775    0.27029745701818
C        -0.46943643766663    0.48557361919696    0.20844133746610
C        -0.23047856886890    1.85201024284397    0.03796673408427
C        -1.31105277418346    2.72361466694475   -0.05058051489792
O        -3.59019592054965    3.20549106582722   -0.09591161278714
C        -4.94646090391609    2.80762318680696   -0.03293833573585
H        -5.20076222442860    2.13236842499232   -0.85493760763990
H        -5.52088443477068    3.72739230107412   -0.12870688707922
H        -5.17634172803125    2.33135578554013    0.92460278059791
C         1.12530189256706    2.43407115243556   -0.09223079688720
H        -1.13318715189439    3.77988140120047   -0.17957911928643
H        -3.84860083362869    0.49514410151543    0.21179608646599
H        -1.95787805823847   -1.02908873985604    0.39652750510900
H         0.34340572009765   -0.21577857190799    0.29169323630953
O         1.29173336856778    3.63447193291772   -0.22260136503653
C         2.29422082446858    1.47389975477012   -0.10891049770079
C         3.62969696483750    2.21150917234996   -0.31221856539842
O         3.71598317833421    2.76010808041490   -1.61531964688110
C         4.82518132000198    1.30006073734032   -0.13333665164362
H         3.69117754868524    3.02271070848685    0.43131119525887
C         4.86204286492451    0.03648536526340   -0.71364194104159
H         3.04807408481679    3.45528166175132   -1.68717001862950
C         5.93490968892616    1.74806934041309    0.57612244328523
C         5.97125107251306   -0.77400325526671   -0.57163465273068
C         7.07801641334046   -0.32286003426490    0.14449866121710
C         7.05389146031875    0.95002758868010    0.71112107893795
H         5.92389832869314    2.73282382693554    1.01890757088989
H         4.02421278757680   -0.31789713139704   -1.29223229681269
H         5.99029332979582   -1.75464648505161   -1.01946411807399
H         7.92139920480110    1.29490030134213    1.25368907251103
C         8.29067669342462   -1.15473105208134    0.30974839967697
O         8.12442885209989   -2.40577654315214   -0.13638570932752
C         9.24066020900931   -3.28344515397730   -0.01413690753561
H         9.58355965141593   -3.31398129655443    1.02180003269586
H        10.06026338050583   -2.94018461020100   -0.64801430476175
H         8.88812205659526   -4.26057721501606   -0.33474646544146
O         9.32803129698418   -0.76302338269750    0.80135380740713
H         2.13667410364001    0.77571606872856   -0.93261802776544
H         2.32293499352656    0.91321008997939    0.82586833246724
41
 energy: -68.074032563237 gnorm: 0.002555826196 xtb: 6.4.1 (afa7bdf)
C        -2.62352603651067    2.26115273848170    0.00638230678741
C        -2.84893587749483    0.89724721661469    0.17131432156529
C        -1.77112474248907    0.03022895594279    0.27293233793284
C        -0.47069573327934    0.48811914342012    0.20417262905401
C        -0.23097496201135    1.85341695494170    0.02483080682879
C        -1.31141155362559    2.72500878728374   -0.06494990412251
O        -3.59167238247522    3.20776170491035   -0.10049269326623
C        -4.94713541996269    2.81201742481781   -0.01098259422875
H        -5.21814289446857    2.13448890813232   -0.82576524721254
H        -5.52123044938396    3.73256981480706   -0.09859768455611
H        -5.15967258427418    2.33855851039459    0.95198316354774
C         1.12491941366775    2.43400246002538   -0.11291471219505
H        -1.13477296211279    3.78058362793926   -0.20107506659412
H        -3.84993742789312    0.49991684408105    0.21978010886692
H        -1.95946944412197   -1.02420925951760    0.40489627424990
H         0.34168881289060   -0.21350925258129    0.28850444111094
O         1.29131310209239    3.63210261160699   -0.26154730915523
C         2.29456266798426    1.47376905114499   -0.11367162479543
C         3.63051070149620    2.20866657224728   -0.32776802838600
O         3.71639312891855    2.73504670395221   -1.64097131802503
C         4.82427361082328    1.29840769850884   -0.13457071770087
H         3.69233520620676    3.03248528307840    0.40158687743422
C         4.87295633399097    0.04197327614897   -0.72996213542869
H         3.04792167041229    3.42809239151755   -1.72450759459837
C         5.92062864327867    1.73772051870210    0.60109408324929