! Job execution by suborca V 5.02 !
Job started from clu.thch.uni-bonn.de, running /software/cluster/orca_5_0_2_linux_x86-64_openmpi411/orca from /software/cluster/orca_5_0_2_linux_x86-64_openmpi411 on boar231 in /tmp1/rothe/LDA_freqopt__8aRItY
Going to copy the following really necessary files:  

                                 *****************
                                 * O   R   C   A *
                                 *****************

                                            #,                                       
                                            ###                                      
                                            ####                                     
                                            #####                                    
                                            ######                                   
                                           ########,                                 
                                     ,,################,,,,,                         
                               ,,#################################,,                 
                          ,,##########################################,,             
                       ,#########################################, ''#####,          
                    ,#############################################,,   '####,        
                  ,##################################################,,,,####,       
                ,###########''''           ''''###############################       
              ,#####''   ,,,,##########,,,,          '''####'''          '####       
            ,##' ,,,,###########################,,,                        '##       
           ' ,,###''''                  '''############,,,                           
         ,,##''                                '''############,,,,        ,,,,,,###''
      ,#''                                            '''#######################'''  
     '                                                          ''''####''''         
             ,#######,   #######,   ,#######,      ##                                
            ,#'     '#,  ##    ##  ,#'     '#,    #''#        ######   ,####,        
            ##       ##  ##   ,#'  ##            #'  '#       #        #'  '#        
            ##       ##  #######   ##           ,######,      #####,   #    #        
            '#,     ,#'  ##    ##  '#,     ,#' ,#      #,         ##   #,  ,#        
             '#######'   ##     ##  '#######'  #'      '#     #####' # '####'        



                  #######################################################
                  #                        -***-                        #
                  #          Department of theory and spectroscopy      #
                  #    Directorship and core code : Frank Neese         #
                  #        Max Planck Institute fuer Kohlenforschung    #
                  #                Kaiser Wilhelm Platz 1               #
                  #                 D-45470 Muelheim/Ruhr               #
                  #                      Germany                        #
                  #                                                     #
                  #                  All rights reserved                #
                  #                        -***-                        #
                  #######################################################


                         Program Version 5.0.2 -  RELEASE  -


 With contributions from (in alphabetic order):
   Daniel Aravena         : Magnetic Suceptibility
   Michael Atanasov       : Ab Initio Ligand Field Theory (pilot matlab implementation)
   Alexander A. Auer      : GIAO ZORA, VPT2 properties, NMR spectrum
   Ute Becker             : Parallelization
   Giovanni Bistoni       : ED, misc. LED, open-shell LED, HFLD
   Martin Brehm           : Molecular dynamics
   Dmytro Bykov           : SCF Hessian
   Vijay G. Chilkuri      : MRCI spin determinant printing, contributions to CSF-ICE
   Dipayan Datta          : RHF DLPNO-CCSD density
   Achintya Kumar Dutta   : EOM-CC, STEOM-CC
   Dmitry Ganyushin       : Spin-Orbit,Spin-Spin,Magnetic field MRCI
   Miquel Garcia          : C-PCM and meta-GGA Hessian, CC/C-PCM, Gaussian charge scheme
   Yang Guo               : DLPNO-NEVPT2, F12-NEVPT2, CIM, IAO-localization
   Andreas Hansen         : Spin unrestricted coupled pair/coupled cluster methods
   Benjamin Helmich-Paris : MC-RPA, TRAH-SCF, COSX integrals
   Lee Huntington         : MR-EOM, pCC
   Robert Izsak           : Overlap fitted RIJCOSX, COSX-SCS-MP3, EOM
   Marcus Kettner         : VPT2
   Christian Kollmar      : KDIIS, OOCD, Brueckner-CCSD(T), CCSD density, CASPT2, CASPT2-K
   Simone Kossmann        : Meta GGA functionals, TD-DFT gradient, OOMP2, MP2 Hessian
   Martin Krupicka        : Initial AUTO-CI
   Lucas Lang             : DCDCAS
   Marvin Lechner         : AUTO-CI (C++ implementation), FIC-MRCC
   Dagmar Lenk            : GEPOL surface, SMD
   Dimitrios Liakos       : Extrapolation schemes; Compound Job, initial MDCI parallelization
   Dimitrios Manganas     : Further ROCIS development; embedding schemes
   Dimitrios Pantazis     : SARC Basis sets
   Anastasios Papadopoulos: AUTO-CI, single reference methods and gradients
   Taras Petrenko         : DFT Hessian,TD-DFT gradient, ASA, ECA, R-Raman, ABS, FL, XAS/XES, NRVS
   Peter Pinski           : DLPNO-MP2, DLPNO-MP2 Gradient
   Christoph Reimann      : Effective Core Potentials
   Marius Retegan         : Local ZFS, SOC
   Christoph Riplinger    : Optimizer, TS searches, QM/MM, DLPNO-CCSD(T), (RO)-DLPNO pert. Triples
   Tobias Risthaus        : Range-separated hybrids, TD-DFT gradient, RPA, STAB
   Michael Roemelt        : Original ROCIS implementation
   Masaaki Saitow         : Open-shell DLPNO-CCSD energy and density
   Barbara Sandhoefer     : DKH picture change effects
   Avijit Sen             : IP-ROCIS
   Kantharuban Sivalingam : CASSCF convergence, NEVPT2, FIC-MRCI
   Bernardo de Souza      : ESD, SOC TD-DFT
   Georgi Stoychev        : AutoAux, RI-MP2 NMR, DLPNO-MP2 response
   Willem Van den Heuvel  : Paramagnetic NMR
   Boris Wezisla          : Elementary symmetry handling
   Frank Wennmohs         : Technical directorship


 We gratefully acknowledge several colleagues who have allowed us to
 interface, adapt or use parts of their codes:
   Stefan Grimme, W. Hujo, H. Kruse, P. Pracht,  : VdW corrections, initial TS optimization,
                  C. Bannwarth, S. Ehlert          DFT functionals, gCP, sTDA/sTD-DF
   Ed Valeev, F. Pavosevic, A. Kumar             : LibInt (2-el integral package), F12 methods
   Garnet Chan, S. Sharma, J. Yang, R. Olivares  : DMRG
   Ulf Ekstrom                                   : XCFun DFT Library
   Mihaly Kallay                                 : mrcc  (arbitrary order and MRCC methods)
   Jiri Pittner, Ondrej Demel                    : Mk-CCSD
   Frank Weinhold                                : gennbo (NPA and NBO analysis)
   Christopher J. Cramer and Donald G. Truhlar   : smd solvation model
   Lars Goerigk                                  : TD-DFT with DH, B97 family of functionals
   V. Asgeirsson, H. Jonsson                     : NEB implementation
   FAccTs GmbH                                   : IRC, NEB, NEB-TS, DLPNO-Multilevel, CI-OPT
                                                   MM, QMMM, 2- and 3-layer-ONIOM, Crystal-QMMM,
                                                   LR-CPCM, SF, NACMEs, symmetry and pop. for TD-DFT,
                                                   nearIR, NL-DFT gradient (VV10), updates on ESD,
                                                   ML-optimized integration grids
   S Lehtola, MJT Oliveira, MAL Marques          : LibXC Library
   Liviu Ungur et al                             : ANISO software


 Your calculation uses the libint2 library for the computation of 2-el integrals
 For citations please refer to: http://libint.valeyev.net

 Your ORCA version has been built with support for libXC version: 5.1.0
 For citations please refer to: https://tddft.org/programs/libxc/

 This ORCA versions uses:
   CBLAS   interface :  Fast vector & matrix operations
   LAPACKE interface :  Fast linear algebra routines
   SCALAPACK package :  Parallel linear algebra routines
   Shared memory     :  Shared parallel matrices
   BLAS/LAPACK       :  OpenBLAS 0.3.15  USE64BITINT DYNAMIC_ARCH NO_AFFINITY Barcelona SINGLE_THREADED
        Core in use  :  Barcelona
   Copyright (c) 2011-2014, The OpenBLAS Project


Your calculation utilizes the atom-pairwise dispersion correction
with the Becke-Johnson damping scheme (D3BJ)
Cite in your paper:
S.Grimme, S.Ehrlich, L.Goerigk, J Comput Chem, (2011), 32, 1456–1465 
S.Grimme, J.Antony, S.Ehrlich and H.Krieg, J.Chem.Phys., 132, (2010), 154104 
   

================================================================================

----- Orbital basis set information -----
Your calculation utilizes the basis: def2-TZVP
   F. Weigend and R. Ahlrichs, Phys. Chem. Chem. Phys. 7, 3297 (2005).

----- AuxJ basis set information -----
Your calculation utilizes the auxiliary basis: def2/J
   F. Weigend, Phys. Chem. Chem. Phys. 8, 1057 (2006).

================================================================================
                                        WARNINGS
                       Please study these warnings very carefully!
================================================================================


WARNING: Geometry Optimization
  ===> : Switching off AutoStart
         For restart on a previous wavefunction, please use MOREAD

INFO   : the flag for use of the SHARK integral package has been found!

================================================================================
                                       INPUT FILE
================================================================================
NAME = LDA_freqopt.inp
|  1> ! TPSS D3BJ def2-TZVP RI def2/J CPCM(THF)
|  2> ! Opt numfreq Pal4
|  3> 
|  4> * xyz 0 1
|  5> N        -3.69992708455461   -2.44696513874598   -0.76519102149449
|  6> C        -2.27795731572095   -2.65056568310402   -0.70216703442551
|  7> C        -4.28270471550862   -1.84853070206507    0.40119700862445
|  8> C        -1.48205004357048   -1.64097872852794   -1.55287904592625
|  9> C        -1.92092675419308   -4.06614404216415   -1.17732722654006
| 10> H        -1.92929985674697   -2.55202780836494    0.34387381056371
| 11> C        -4.04655804774177   -0.32570833057428    0.51123404503345
| 12> H        -3.85361051269733   -2.30599509132962    1.32010240155003
| 13> C        -5.78862631933464   -2.11116993479953    0.41460615747049
| 14> H        -1.75842252976470   -1.76040760155593   -2.60128107608997
| 15> H        -0.41138371010262   -1.80366347057006   -1.44549857705677
| 16> H        -1.71412473646118   -0.62459549728382   -1.24885329071237
| 17> H        -2.24817989350386   -4.18748627559713   -2.21162902482094
| 18> H        -2.43136994305043   -4.80026027543560   -0.55974496299154
| 19> H        -0.84841405875664   -4.23739476394149   -1.12002539653337
| 20> H        -2.98542124623397   -0.11692883551441    0.61784669910484
| 21> H        -4.56506631556124    0.08273358572781    1.37665700419445
| 22> H        -4.41001973495435    0.16366290063350   -0.39205458835075
| 23> H        -6.23831349478283   -1.64609407760622   -0.46605311764737
| 24> H        -6.24527438696350   -1.69260995727157    1.30767065770249
| 25> H        -5.97308684664509   -3.18297871491506    0.38965183822554
| 26> Li       -4.63216497185117   -2.67450513709446   -2.21728387438005
| 27> *
| 28> 
| 29>                          ****END OF INPUT****
================================================================================

                       *****************************
                       * Geometry Optimization Run *
                       *****************************

Geometry optimization settings:
Update method            Update   .... BFGS
Choice of coordinates    CoordSys .... Z-matrix Internals
Initial Hessian          InHess   .... Almoef's Model

Convergence Tolerances:
Energy Change            TolE     ....  5.0000e-06 Eh
Max. Gradient            TolMAXG  ....  3.0000e-04 Eh/bohr
RMS Gradient             TolRMSG  ....  1.0000e-04 Eh/bohr
Max. Displacement        TolMAXD  ....  4.0000e-03 bohr
RMS Displacement         TolRMSD  ....  2.0000e-03 bohr
Strict Convergence                ....  False
------------------------------------------------------------------------------
                        ORCA OPTIMIZATION COORDINATE SETUP
------------------------------------------------------------------------------

The optimization will be done in new redundant internal coordinates
Making redundant internal coordinates   ...  (new redundants) done
Evaluating the initial hessian          ...  (Almloef) done
Evaluating the coordinates              ...  done
Calculating the B-matrix                .... done
Calculating the G-matrix                .... done
Diagonalizing the G-matrix              .... done
Small eigenvalue found = 2.334e-02
The first mode is                       ....   48
The number of degrees of freedom        ....   60

    -----------------------------------------------------------------
                    Redundant Internal Coordinates


    -----------------------------------------------------------------
         Definition                    Initial Value    Approx d2E/dq
    -----------------------------------------------------------------
      1. B(C   1,N   0)                  1.4379         0.469384   
      2. B(C   2,N   0)                  1.4346         0.474944   
      3. B(C   3,C   1)                  1.5416         0.358026   
      4. B(C   4,C   1)                  1.5353         0.366387   
      5. B(H   5,C   1)                  1.1070         0.338285   
      6. B(C   6,C   2)                  1.5449         0.353615   
      7. B(H   7,C   2)                  1.1126         0.331463   
      8. B(C   8,C   2)                  1.5287         0.375347   
      9. B(H   9,C   3)                  1.0908         0.359075   
     10. B(H  10,C   3)                  1.0883         0.362401   
     11. B(H  11,C   3)                  1.0860         0.365474   
     12. B(H  12,C   4)                  1.0916         0.357985   
     13. B(H  13,C   4)                  1.0867         0.364511   
     14. B(H  14,C   4)                  1.0876         0.363277   
     15. B(H  15,C   6)                  1.0867         0.364462   
     16. B(H  16,C   6)                  1.0884         0.362212   
     17. B(H  17,C   6)                  1.0897         0.360453   
     18. B(H  18,C   8)                  1.0927         0.356497   
     19. B(H  19,C   8)                  1.0869         0.364266   
     20. B(H  20,C   8)                  1.0879         0.362952   
     21. B(Li 21,N   0)                  1.7405         0.749339   
     22. A(C   2,N   0,Li 21)          121.0138         0.459560   
     23. A(C   1,N   0,C   2)          115.1607         0.389034   
     24. A(C   1,N   0,Li 21)          123.2127         0.458573   
     25. A(C   4,C   1,H   5)          107.5343         0.319996   
     26. A(C   3,C   1,C   4)          108.2393         0.359532   
     27. A(N   0,C   1,H   5)          109.8944         0.331308   
     28. A(C   3,C   1,H   5)          107.4906         0.318792   
     29. A(N   0,C   1,C   3)          113.1830         0.372780   
     30. A(N   0,C   1,C   4)          110.3024         0.374266   
     31. A(H   7,C   2,C   8)          107.5805         0.320194   
     32. A(C   6,C   2,C   8)          108.6201         0.360253   
     33. A(N   0,C   2,C   8)          109.6107         0.376596   
     34. A(C   6,C   2,H   7)          106.7093         0.317094   
     35. A(N   0,C   2,H   7)          110.0789         0.330837   
     36. A(N   0,C   2,C   6)          114.0147         0.372740   
     37. A(C   1,C   3,H  10)          110.8298         0.322402   
     38. A(C   1,C   3,H   9)          109.1407         0.321915   
     39. A(H  10,C   3,H  11)          108.8163         0.291809   
     40. A(H   9,C   3,H  11)          108.5064         0.291387   
     41. A(C   1,C   3,H  11)          110.3721         0.322848   
     42. A(H   9,C   3,H  10)          109.1320         0.291000   
     43. A(H  13,C   4,H  14)          109.0802         0.291799   
     44. A(H  12,C   4,H  14)          109.1503         0.290972   
     45. A(C   1,C   4,H  14)          110.9894         0.323753   
     46. A(H  12,C   4,H  13)          108.8184         0.291127   
     47. A(C   1,C   4,H  13)          109.7402         0.323933   
     48. A(C   1,C   4,H  12)          109.0275         0.322974   
     49. A(H  16,C   6,H  17)          109.3704         0.291152   
     50. A(H  15,C   6,H  17)          108.7067         0.291435   
     51. A(C   2,C   6,H  17)          109.4281         0.321464   
     52. A(H  15,C   6,H  16)          108.3653         0.291658   
     53. A(C   2,C   6,H  16)          110.7142         0.321720   
     54. A(C   2,C   6,H  15)          110.2188         0.322046   
     55. A(H  19,C   8,H  20)          109.0888         0.291727   
     56. A(H  18,C   8,H  20)          109.3333         0.290741   
     57. A(C   2,C   8,H  20)          109.6398         0.324992   
     58. A(H  18,C   8,H  19)          108.9903         0.290906   
     59. A(C   2,C   8,H  19)          110.7892         0.325185   
     60. A(C   2,C   8,H  18)          108.9776         0.324035   
     61. D(H   5,C   1,N   0,C   2)     14.9998         0.018823   
     62. D(C   3,C   1,N   0,Li 21)     65.9131         0.018823   
     63. D(C   4,C   1,N   0,C   2)    133.3919         0.018823   
     64. D(C   3,C   1,N   0,C   2)   -105.1774         0.018823   
     65. D(H   5,C   1,N   0,Li 21)   -173.9097         0.018823   
     66. D(C   4,C   1,N   0,Li 21)    -55.5175         0.018823   
     67. D(C   8,C   2,N   0,Li 21)     27.5637         0.019283   
     68. D(C   6,C   2,N   0,C   1)     76.8751         0.019283   
     69. D(H   7,C   2,N   0,Li 21)    145.7039         0.019283   
     70. D(C   8,C   2,N   0,C   1)   -161.1320         0.019283   
     71. D(C   6,C   2,N   0,Li 21)    -94.4292         0.019283   
     72. D(H   7,C   2,N   0,C   1)    -42.9918         0.019283   
     73. D(H   9,C   3,C   1,N   0)    -62.1065         0.010292   
     74. D(H   9,C   3,C   1,C   4)     60.4782         0.010292   
     75. D(H  11,C   3,C   1,C   4)    179.6406         0.010292   
     76. D(H   9,C   3,C   1,H   5)    176.3549         0.010292   
     77. D(H  10,C   3,C   1,H   5)     56.1408         0.010292   
     78. D(H  10,C   3,C   1,C   4)    -59.7359         0.010292   
     79. D(H  10,C   3,C   1,N   0)    177.6794         0.010292   
     80. D(H  11,C   3,C   1,H   5)    -64.4827         0.010292   
     81. D(H  11,C   3,C   1,N   0)     57.0559         0.010292   
     82. D(H  14,C   4,C   1,H   5)    -59.3189         0.010744   
     83. D(H  14,C   4,C   1,C   3)     56.5293         0.010744   
     84. D(H  14,C   4,C   1,N   0)   -179.1470         0.010744   
     85. D(H  13,C   4,C   1,H   5)     61.3219         0.010744   
     86. D(H  13,C   4,C   1,C   3)    177.1702         0.010744   
     87. D(H  13,C   4,C   1,N   0)    -58.5062         0.010744   
     88. D(H  12,C   4,C   1,H   5)   -179.5823         0.010744   
     89. D(H  12,C   4,C   1,C   3)    -63.7341         0.010744   
     90. D(H  12,C   4,C   1,N   0)     60.5895         0.010744   
     91. D(H  15,C   6,C   2,N   0)    -63.8769         0.010058   
     92. D(H  17,C   6,C   2,H   7)    177.3631         0.010058   
     93. D(H  17,C   6,C   2,N   0)     55.6166         0.010058   
     94. D(H  16,C   6,C   2,C   8)     53.7025         0.010058   
     95. D(H  16,C   6,C   2,H   7)    -62.0142         0.010058   
     96. D(H  16,C   6,C   2,N   0)    176.2393         0.010058   
     97. D(H  15,C   6,C   2,C   8)    173.5863         0.010058   
     98. D(H  17,C   6,C   2,C   8)    -66.9202         0.010058   
     99. D(H  15,C   6,C   2,H   7)     57.8696         0.010058   
    100. D(H  20,C   8,C   2,H   7)    -61.9432         0.011244   
    101. D(H  20,C   8,C   2,N   0)     57.7397         0.011244   
    102. D(H  19,C   8,C   2,H   7)     58.5143         0.011244   
    103. D(H  19,C   8,C   2,C   6)    -56.6373         0.011244   
    104. D(H  19,C   8,C   2,N   0)    178.1972         0.011244   
    105. D(H  18,C   8,C   2,H   7)    178.4240         0.011244   
    106. D(H  20,C   8,C   2,C   6)   -177.0948         0.011244   
    107. D(H  18,C   8,C   2,C   6)     63.2724         0.011244   
    108. D(H  18,C   8,C   2,N   0)    -61.8931         0.011244   
    -----------------------------------------------------------------

Number of atoms                         .... 22
Number of degrees of freedom            .... 108

         *************************************************************
         *                GEOMETRY OPTIMIZATION CYCLE   1            *
         *************************************************************
---------------------------------
CARTESIAN COORDINATES (ANGSTROEM)
---------------------------------
  N     -3.699927   -2.446965   -0.765191
  C     -2.277957   -2.650566   -0.702167
  C     -4.282705   -1.848531    0.401197
  C     -1.482050   -1.640979   -1.552879
  C     -1.920927   -4.066144   -1.177327
  H     -1.929300   -2.552028    0.343874
  C     -4.046558   -0.325708    0.511234
  H     -3.853611   -2.305995    1.320102
  C     -5.788626   -2.111170    0.414606
  H     -1.758423   -1.760408   -2.601281
  H     -0.411384   -1.803663   -1.445499
  H     -1.714125   -0.624595   -1.248853
  H     -2.248180   -4.187486   -2.211629
  H     -2.431370   -4.800260   -0.559745
  H     -0.848414   -4.237395   -1.120025
  H     -2.985421   -0.116929    0.617847
  H     -4.565066    0.082734    1.376657
  H     -4.410020    0.163663   -0.392055
  H     -6.238313   -1.646094   -0.466053
  H     -6.245274   -1.692610    1.307671
  H     -5.973087   -3.182979    0.389652
  Li    -4.632165   -2.674505   -2.217284

----------------------------
CARTESIAN COORDINATES (A.U.)
----------------------------
  NO LB      ZA    FRAG     MASS         X           Y           Z
   0 N     7.0000    0    14.007   -6.991849   -4.624094   -1.446001
   1 C     6.0000    0    12.011   -4.304715   -5.008843   -1.326903
   2 C     6.0000    0    12.011   -8.093139   -3.493217    0.758152
   3 C     6.0000    0    12.011   -2.800669   -3.101000   -2.934516
   4 C     6.0000    0    12.011   -3.630025   -7.683899   -2.224826
   5 H     1.0000    0     1.008   -3.645848   -4.822634    0.649827
   6 C     6.0000    0    12.011   -7.646886   -0.615500    0.966092
   7 H     1.0000    0     1.008   -7.282268   -4.357699    2.494632
   8 C     6.0000    0    12.011  -10.938918   -3.989533    0.783492
   9 H     1.0000    0     1.008   -3.322937   -3.326688   -4.915709
  10 H     1.0000    0     1.008   -0.777403   -3.408430   -2.731596
  11 H     1.0000    0     1.008   -3.239226   -1.180314   -2.359991
  12 H     1.0000    0     1.008   -4.248444   -7.913202   -4.179373
  13 H     1.0000    0     1.008   -4.594623   -9.071177   -1.057765
  14 H     1.0000    0     1.008   -1.603270   -8.007516   -2.116541
  15 H     1.0000    0     1.008   -5.641629   -0.220963    1.167561
  16 H     1.0000    0     1.008   -8.626725    0.156344    2.601505
  17 H     1.0000    0     1.008   -8.333730    0.309278   -0.740876
  18 H     1.0000    0     1.008  -11.788704   -3.110667   -0.880713
  19 H     1.0000    0     1.008  -11.801858   -3.198569    2.471139
  20 H     1.0000    0     1.008  -11.287498   -6.014958    0.736335
  21 Li    3.0000    0     6.941   -8.753523   -5.054082   -4.190059

--------------------------------
INTERNAL COORDINATES (ANGSTROEM)
--------------------------------
 N      0   0   0     0.000000000000     0.00000000     0.00000000
 C      1   0   0     1.437853687997     0.00000000     0.00000000
 C      1   2   0     1.434647893718   115.16071231     0.00000000
 C      2   1   3     1.541572291923   113.18296671   254.82255701
 C      2   1   3     1.535288285852   110.30236159   133.39189980
 H      2   1   3     1.107010923994   109.89444220    14.99978968
 C      3   1   2     1.544947045433   114.01473651    76.87507490
 H      3   1   2     1.112556795620   110.07885146   317.00815400
 C      3   1   2     1.528711564918   109.61068869   198.86799084
 H      4   2   1     1.090775789835   109.14065853   297.89347352
 H      4   2   1     1.088266184354   110.82977328   177.67935878
 H      4   2   1     1.085967400831   110.37208481    57.05585043
 H      5   2   1     1.091603758115   109.02751170    60.58954383
 H      5   2   1     1.086686130055   109.74023670   301.49381055
 H      5   2   1     1.087609208909   110.98936150   180.85296669
 H      7   3   1     1.086722801399   110.21884164   296.12308841
 H      7   3   1     1.088408251086   110.71418498   176.23927640
 H      7   3   1     1.089733433096   109.42814540    55.61658005
 H      9   3   1     1.092737327796   108.97759868   298.10689338
 H      9   3   1     1.086868949797   110.78921765   178.19723062
 H      9   3   1     1.087852225864   109.63977463    57.73969736
 Li     1   2   3     1.740521640992   123.21267757   171.09055910

---------------------------
INTERNAL COORDINATES (A.U.)
---------------------------
 N      0   0   0     0.000000000000     0.00000000     0.00000000
 C      1   0   0     2.717149690962     0.00000000     0.00000000
 C      1   2   0     2.711091617735   115.16071231     0.00000000
 C      2   1   3     2.913149447375   113.18296671   254.82255701
 C      2   1   3     2.901274396878   110.30236159   133.39189980
 H      2   1   3     2.091947473608   109.89444220    14.99978968
 C      3   1   2     2.919526807279   114.01473651    76.87507490
 H      3   1   2     2.102427652154   110.07885146   317.00815400
 C      3   1   2     2.888846195453   109.61068869   198.86799084
 H      4   2   1     2.061267516299   109.14065853   297.89347352
 H      4   2   1     2.056525049237   110.82977328   177.67935878
 H      4   2   1     2.052180977937   110.37208481    57.05585043
 H      5   2   1     2.062832149596   109.02751170    60.58954383
 H      5   2   1     2.053539179334   109.74023670   301.49381055
 H      5   2   1     2.055283545569   110.98936150   180.85296669
 H      7   3   1     2.053608478131   110.21884164   296.12308841
 H      7   3   1     2.056793516453   110.71418498   176.23927640
 H      7   3   1     2.059297747528   109.42814540    55.61658005
 H      9   3   1     2.064974285847   108.97759868   298.10689338
 H      9   3   1     2.053884658578   110.78921765   178.19723062
 H      9   3   1     2.055742781060   109.63977463    57.73969736
 Li     1   2   3     3.289109231638   123.21267757   171.09055910

---------------------
BASIS SET INFORMATION
---------------------
There are 4 groups of distinct atoms

 Group   1 Type N   : 11s6p2d1f contracted to 5s3p2d1f pattern {62111/411/11/1}
 Group   2 Type C   : 11s6p2d1f contracted to 5s3p2d1f pattern {62111/411/11/1}
 Group   3 Type H   : 5s1p contracted to 3s1p pattern {311/1}
 Group   4 Type Li  : 11s3p contracted to 5s3p pattern {62111/111}

Atom   0N    basis set group =>   1
Atom   1C    basis set group =>   2
Atom   2C    basis set group =>   2
Atom   3C    basis set group =>   2
Atom   4C    basis set group =>   2
Atom   5H    basis set group =>   3
Atom   6C    basis set group =>   2
Atom   7H    basis set group =>   3
Atom   8C    basis set group =>   2
Atom   9H    basis set group =>   3
Atom  10H    basis set group =>   3
Atom  11H    basis set group =>   3
Atom  12H    basis set group =>   3
Atom  13H    basis set group =>   3
Atom  14H    basis set group =>   3
Atom  15H    basis set group =>   3
Atom  16H    basis set group =>   3
Atom  17H    basis set group =>   3
Atom  18H    basis set group =>   3
Atom  19H    basis set group =>   3
Atom  20H    basis set group =>   3
Atom  21Li   basis set group =>   4
---------------------------------
AUXILIARY/J BASIS SET INFORMATION
---------------------------------
There are 4 groups of distinct atoms

 Group   1 Type N   : 12s5p4d2f1g contracted to 6s4p3d1f1g pattern {711111/2111/211/2/1}
 Group   2 Type C   : 12s5p4d2f1g contracted to 6s4p3d1f1g pattern {711111/2111/211/2/1}
 Group   3 Type H   : 5s2p1d contracted to 3s1p1d pattern {311/2/1}
 Group   4 Type Li  : 12s5p4d2f1g contracted to 6s4p3d1f1g pattern {711111/2111/211/2/1}

Atom   0N    basis set group =>   1
Atom   1C    basis set group =>   2
Atom   2C    basis set group =>   2
Atom   3C    basis set group =>   2
Atom   4C    basis set group =>   2
Atom   5H    basis set group =>   3
Atom   6C    basis set group =>   2
Atom   7H    basis set group =>   3
Atom   8C    basis set group =>   2
Atom   9H    basis set group =>   3
Atom  10H    basis set group =>   3
Atom  11H    basis set group =>   3
Atom  12H    basis set group =>   3
Atom  13H    basis set group =>   3
Atom  14H    basis set group =>   3
Atom  15H    basis set group =>   3
Atom  16H    basis set group =>   3
Atom  17H    basis set group =>   3
Atom  18H    basis set group =>   3
Atom  19H    basis set group =>   3
Atom  20H    basis set group =>   3
Atom  21Li   basis set group =>   4


           ************************************************************
           *        Program running with 4 parallel MPI-processes     *
           *              working on a common directory               *
           ************************************************************
------------------------------------------------------------------------------
                           ORCA GTO INTEGRAL CALCULATION
                           -- RI-GTO INTEGRALS CHOSEN --
------------------------------------------------------------------------------
------------------------------------------------------------------------------
                   ___                                                        
                  /   \      - P O W E R E D   B Y -                         
                 /     \                                                     
                 |  |  |   _    _      __       _____    __    __             
                 |  |  |  | |  | |    /  \     |  _  \  |  |  /  |          
                  \  \/   | |  | |   /    \    | | | |  |  | /  /          
                 / \  \   | |__| |  /  /\  \   | |_| |  |  |/  /          
                |  |  |   |  __  | /  /__\  \  |    /   |      \           
                |  |  |   | |  | | |   __   |  |    \   |  |\   \          
                \     /   | |  | | |  |  |  |  | |\  \  |  | \   \       
                 \___/    |_|  |_| |__|  |__|  |_| \__\ |__|  \__/        
                                                                              
                      - O R C A' S   B I G   F R I E N D -                    
                                      &                                       
                       - I N T E G R A L  F E E D E R -                       
                                                                              
 v1 FN, 2020, v2 2021                                                         
------------------------------------------------------------------------------


Reading SHARK input file LDA_freqopt.SHARKINP.tmp ... ok
----------------------
SHARK INTEGRAL PACKAGE
----------------------

Number of atoms                             ...     22
Number of basis functions                   ...    315
Number of shells                            ...    141
Maximum angular momentum                    ...      3
Integral batch strategy                     ... SHARK/LIBINT Hybrid
RI-J (if used) integral strategy            ... SPLIT-RIJ (Revised 2003 algorithm where possible)
Printlevel                                  ...      1
Contraction scheme used                     ... SEGMENTED contraction
Coulomb Range Separation                    ... NOT USED
Exchange Range Separation                   ... NOT USED
Finite Nucleus Model                        ... NOT USED
Auxiliary Coulomb fitting basis             ... AVAILABLE
   # of basis functions in Aux-J            ...    546
   # of shells in Aux-J                     ...    190
   Maximum angular momentum in Aux-J        ...      4
Auxiliary J/K fitting basis                 ... NOT available
Auxiliary Correlation fitting basis         ... NOT available
Auxiliary 'external' fitting basis          ... NOT available
Integral threshold                          ...     2.500000e-11
Primitive cut-off                           ...     2.500000e-12
Primitive pair pre-selection threshold      ...     2.500000e-12

Calculating pre-screening integrals         ... done (  0.1 sec) Dimension = 141
Organizing shell pair data                  ... done (  0.2 sec)
Shell pair information
Total number of shell pairs                 ...     10011
Shell pairs after pre-screening             ...      9156
Total number of primitive shell pairs       ...     28653
Primitive shell pairs kept                  ...     19750
          la=0 lb=0:   3039 shell pairs
          la=1 lb=0:   2839 shell pairs
          la=1 lb=1:    685 shell pairs
          la=2 lb=0:   1078 shell pairs
          la=2 lb=1:    502 shell pairs
          la=2 lb=2:    102 shell pairs
          la=3 lb=0:    533 shell pairs
          la=3 lb=1:    254 shell pairs
          la=3 lb=2:     96 shell pairs
          la=3 lb=3:     28 shell pairs

Calculating one electron integrals          ... done (  0.0 sec)
Calculating RI/J V-Matrix + Cholesky decomp.... done (  0.0 sec)
Calculating Nuclear repulsion               ... done (  0.0 sec) ENN=    353.850524346463 Eh

SHARK setup successfully completed in   0.7 seconds

Maximum memory used throughout the entire GTOINT-calculation: 22.0 MB


           ************************************************************
           *        Program running with 4 parallel MPI-processes     *
           *              working on a common directory               *
           ************************************************************
-------------------------------------------------------------------------------
                                 ORCA SCF
-------------------------------------------------------------------------------

------------
SCF SETTINGS
------------
Hamiltonian:
 Density Functional     Method          .... DFT(GTOs)
 Exchange Functional    Exchange        .... TPSS
 Correlation Functional Correlation     .... TPSS
 LDA part of GGA corr.  LDAOpt          .... PW91-LDA
 Gradients option       PostSCFGGA      .... off
   Density functional embedding theory  .... OFF
   NL short-range parameter             ....  5.000000
 RI-approximation to the Coulomb term is turned on
   Number of AuxJ basis functions       .... 546


General Settings:
 Integral files         IntName         .... LDA_freqopt
 Hartree-Fock type      HFTyp           .... RHF
 Total Charge           Charge          ....    0
 Multiplicity           Mult            ....    1
 Number of Electrons    NEL             ....   60
 Basis Dimension        Dim             ....  315
 Nuclear Repulsion      ENuc            ....    353.8505243465 Eh

Convergence Acceleration:
 DIIS                   CNVDIIS         .... on
   Start iteration      DIISMaxIt       ....    12
   Startup error        DIISStart       ....  0.200000
   # of expansion vecs  DIISMaxEq       ....     5
   Bias factor          DIISBfac        ....   1.050
   Max. coefficient     DIISMaxC        ....  10.000
 Trust-Rad. Augm. Hess. CNVTRAH         .... auto
   Auto Start mean grad. ratio tolernc. ....  1.125000
   Auto Start start iteration           ....    20
   Auto Start num. interpolation iter.  ....    10
   Max. Number of Micro iterations      ....    16
   Max. Number of Macro iterations      .... Maxiter - #DIIS iter
   Number of Davidson start vectors     ....     2
   Converg. threshold I  (grad. norm)   ....   1.000e-05
   Converg. threshold II (energy diff.) ....   1.000e-08
   Grad. Scal. Fac. for Micro threshold ....   0.100
   Minimum threshold for Micro iter.    ....   0.010
   NR start threshold (gradient norm)   ....   0.001
   Initial trust radius                 ....   0.400
   Minimum AH scaling param. (alpha)    ....   1.000
   Maximum AH scaling param. (alpha)    .... 1000.000
   Orbital update algorithm             .... Taylor
   White noise on init. David. guess    .... on
   Maximum white noise                  ....   0.010
   Quad. conv. algorithm                .... NR
 SOSCF                  CNVSOSCF        .... on
   Start iteration      SOSCFMaxIt      ....   150
   Startup grad/error   SOSCFStart      ....  0.003300
 Level Shifting         CNVShift        .... on
   Level shift para.    LevelShift      ....    0.2500
   Turn off err/grad.   ShiftErr        ....    0.0010
 Zerner damping         CNVZerner       .... off
 Static damping         CNVDamp         .... on
   Fraction old density DampFac         ....    0.7000
   Max. Damping (<1)    DampMax         ....    0.9800
   Min. Damping (>=0)   DampMin         ....    0.0000
   Turn off err/grad.   DampErr         ....    0.1000
 Fernandez-Rico         CNVRico         .... off

SCF Procedure:
 Maximum # iterations   MaxIter         ....   125
 SCF integral mode      SCFMode         .... Direct
   Integral package                     .... SHARK and LIBINT hybrid scheme
 Reset frequency        DirectResetFreq ....    20
 Integral Threshold     Thresh          ....  2.500e-11 Eh
 Primitive CutOff       TCut            ....  2.500e-12 Eh

Convergence Tolerance:
 Convergence Check Mode ConvCheckMode   .... Total+1el-Energy
 Convergence forced     ConvForced      .... 0
 Energy Change          TolE            ....  1.000e-08 Eh
 1-El. energy change                    ....  1.000e-05 Eh
 Orbital Gradient       TolG            ....  1.000e-05
 Orbital Rotation angle TolX            ....  1.000e-05
 DIIS Error             TolErr          ....  5.000e-07


Diagonalization of the overlap matrix:
Smallest eigenvalue                        ... 2.125e-04
Time for diagonalization                   ...    0.045 sec
Threshold for overlap eigenvalues          ... 1.000e-08
Number of eigenvalues below threshold      ... 0
Time for construction of square roots      ...    0.025 sec
Total time needed                          ...    0.072 sec

Time for model grid setup =    0.317 sec

------------------------------
INITIAL GUESS: MODEL POTENTIAL
------------------------------
Loading Hartree-Fock densities                     ... done
Calculating cut-offs                               ... done
Initializing the effective Hamiltonian             ... done
Setting up the integral package (SHARK)            ... done
Starting the Coulomb interaction                   ... done (   0.3 sec)
Reading the grid                                   ... done
Mapping shells                                     ... done
Starting the XC term evaluation                    ... done (   0.4 sec)
  promolecular density results
     # of electrons  =     59.994482234
     EX              =    -43.134442558
     EC              =     -1.923150167
     EX+EC           =    -45.057592724
Transforming the Hamiltonian                       ... done (   0.0 sec)
Diagonalizing the Hamiltonian                      ... done (   0.0 sec)
Back transforming the eigenvectors                 ... done (   0.0 sec)
Now organizing SCF variables                       ... done
                      ------------------
                      INITIAL GUESS DONE (   1.1 sec)
                      ------------------
-------------------
DFT GRID GENERATION
-------------------

General Integration Accuracy     IntAcc      ... 4.388
Radial Grid Type                 RadialGrid  ... OptM3 with GC (2021)
Angular Grid (max. ang.)         AngularGrid ... 4 (Lebedev-302)
Angular grid pruning method      GridPruning ... 4 (adaptive)
Weight generation scheme         WeightScheme... Becke
Basis function cutoff            BFCut       ... 1.0000e-11
Integration weight cutoff        WCut        ... 1.0000e-14
Angular grids for H and He will be reduced by one unit
Partially contracted basis set               ... off
Rotationally invariant grid construction     ... off

Total number of grid points                  ...    92105
Total number of batches                      ...     1450
Average number of points per batch           ...       63
Average number of grid points per atom       ...     4187
Time for grid setup =    1.269 sec


--------------------
CPCM SOLVATION MODEL
--------------------
CPCM parameters:
  Epsilon                                         ...       7.2500
  Refrac                                          ...       1.4070
  Rsolv                                           ...       1.3000
  Surface type                                    ... GAUSSIAN VDW
  Epsilon function type                           ...         CPCM
Radii:
 Radius for N  used is    3.5149 Bohr (=   1.8600 Ang.)
 Radius for C  used is    3.8550 Bohr (=   2.0400 Ang.)
 Radius for H  used is    2.4944 Bohr (=   1.3200 Ang.)
 Radius for Li used is    4.1272 Bohr (=   2.1840 Ang.)
Calculating surface                               ...        done! (  0.0s)
GEPOL surface points                              ...         1185
GEPOL Volume                                      ...    1233.4783
GEPOL Surface-area                                ...     683.7636
Calculating surface distance matrix               ...        done! (  0.0s)
Performing Cholesky decomposition & store         ...        done! (  0.2s)
Overall time for CPCM initialization              ...                 0.2s
--------------
SCF ITERATIONS
--------------
ITER       Energy         Delta-E        Max-DP      RMS-DP      [F,P]     Damp
               ***  Starting incremental Fock matrix formation  ***
  0   -299.0829479855   0.000000000000 0.32037339  0.00287613  0.3188062 0.7000
  1   -299.3018365637  -0.218888578229 0.26599007  0.00232591  0.1069466 0.7000
                               ***Turning on DIIS***
  2   -299.3651791829  -0.063342619218 0.15467822  0.00235414  0.0281945 0.0000
  3   -299.4676500130  -0.102470830104 0.29064098  0.00233271  0.0667469 0.0000
  4   -299.5012321621  -0.033582149063 0.07649455  0.00071774  0.0275086 0.0000
  5   -299.5053396070  -0.004107444972 0.03354133  0.00031805  0.0045838 0.0000
  6   -299.5056253234  -0.000285716374 0.01268410  0.00013426  0.0037642 0.0000
                      *** Initiating the SOSCF procedure ***
                           *** Shutting down DIIS ***
                      *** Re-Reading the Fockian *** 
                      *** Removing any level shift *** 
ITER      Energy       Delta-E        Grad      Rot      Max-DP    RMS-DP
  7   -299.50571371  -0.0000883820  0.001019  0.001019  0.004629  0.000060
               *** Restarting incremental Fock matrix formation ***
  8   -299.50573939  -0.0000256813  0.000608  0.003837  0.004819  0.000074
  9   -299.50575012  -0.0000107379  0.000111  0.000485  0.001418  0.000020
 10   -299.50574964   0.0000004829  0.000148  0.000340  0.000754  0.000013
 11   -299.50575114  -0.0000015019  0.000035  0.000223  0.000720  0.000007
 12   -299.50575098   0.0000001592  0.000060  0.000164  0.000444  0.000005
 13   -299.50575122  -0.0000002395  0.000004  0.000006  0.000028  0.000001
 14   -299.50575122   0.0000000001  0.000004  0.000003  0.000016  0.000000
                  ***Gradient check signals convergence***
              ***Rediagonalizing the Fockian in SOSCF/NRSCF***

               *****************************************************
               *                     SUCCESS                       *
               *           SCF CONVERGED AFTER  15 CYCLES          *
               *****************************************************


----------------
TOTAL SCF ENERGY
----------------

Total Energy       :         -299.50575123 Eh           -8149.96583 eV

Components:
Nuclear Repulsion  :          353.85052435 Eh            9628.76228 eV
Electronic Energy  :         -653.35627557 Eh          -17778.72811 eV
One Electron Energy:        -1105.59305432 Eh          -30084.71649 eV
Two Electron Energy:          452.23677875 Eh           12305.98837 eV
CPCM Dielectric    :           -0.01376396 Eh              -0.37454 eV

Virial components:
Potential Energy   :         -597.74857862 Eh          -16265.56575 eV
Kinetic Energy     :          298.24282740 Eh            8115.59992 eV
Virial Ratio       :            2.00423455


DFT components:
N(Alpha)           :       30.000028396273 electrons
N(Beta)            :       30.000028396273 electrons
N(Total)           :       60.000056792547 electrons
E(X)               :      -44.934589631322 Eh       
E(C)               :       -1.928670472250 Eh       
E(XC)              :      -46.863260103572 Eh       
DFET-embed. en.    :        0.000000000000 Eh       
CPCM Solvation Model Properties:
Surface-charge          :           -0.03430830
Charge-correction       :            0.00041365 Eh               0.01126 eV
Free-energy (cav+disp)  :  This term is not implemented in the current solvation scheme

---------------
SCF CONVERGENCE
---------------

  Last Energy change         ...   -2.5155e-09  Tolerance :   1.0000e-08
  Last MAX-Density change    ...    7.3407e-06  Tolerance :   1.0000e-07
  Last RMS-Density change    ...    9.2837e-08  Tolerance :   5.0000e-09
  Last Orbital Gradient      ...    4.6128e-07  Tolerance :   1.0000e-05
  Last Orbital Rotation      ...    6.8269e-07  Tolerance :   1.0000e-05

             **** THE GBW FILE WAS UPDATED (LDA_freqopt.gbw) ****
             **** DENSITY LDA_freqopt.scfp WAS UPDATED ****
             **** ENERGY FILE WAS UPDATED (LDA_freqopt.en.tmp) ****
             **** THE GBW FILE WAS UPDATED (LDA_freqopt.gbw) ****
             **** DENSITY LDA_freqopt.scfp WAS UPDATED ****
----------------
ORBITAL ENERGIES
----------------

  NO   OCC          E(Eh)            E(eV) 
   0   2.0000     -13.995271      -380.8307 
   1   2.0000      -9.981223      -271.6029 
   2   2.0000      -9.979390      -271.5530 
   3   2.0000      -9.958093      -270.9735 
   4   2.0000      -9.953580      -270.8507 
   5   2.0000      -9.950959      -270.7793 
   6   2.0000      -9.949732      -270.7460 
   7   2.0000      -1.870802       -50.9071 
   8   2.0000      -0.785072       -21.3629 
   9   2.0000      -0.706578       -19.2270 
  10   2.0000      -0.636040       -17.3075 
  11   2.0000      -0.617961       -16.8156 
  12   2.0000      -0.611595       -16.6424 
  13   2.0000      -0.509260       -13.8577 
  14   2.0000      -0.477292       -12.9878 
  15   2.0000      -0.413793       -11.2599 
  16   2.0000      -0.398163       -10.8346 
  17   2.0000      -0.375047       -10.2055 
  18   2.0000      -0.363625        -9.8947 
  19   2.0000      -0.350008        -9.5242 
  20   2.0000      -0.340169        -9.2565 
  21   2.0000      -0.334117        -9.0918 
  22   2.0000      -0.332347        -9.0436 
  23   2.0000      -0.307058        -8.3555 
  24   2.0000      -0.294009        -8.0004 
  25   2.0000      -0.291778        -7.9397 
  26   2.0000      -0.273436        -7.4406 
  27   2.0000      -0.257781        -7.0146 
  28   2.0000      -0.200370        -5.4523 
  29   2.0000      -0.118186        -3.2160 
  30   0.0000      -0.020590        -0.5603 
  31   0.0000       0.031451         0.8558 
  32   0.0000       0.040043         1.0896 
  33   0.0000       0.045100         1.2272 
  34   0.0000       0.071405         1.9430 
  35   0.0000       0.078828         2.1450 
  36   0.0000       0.081261         2.2112 
  37   0.0000       0.088837         2.4174 
  38   0.0000       0.097006         2.6397 
  39   0.0000       0.108851         2.9620 
  40   0.0000       0.113232         3.0812 
  41   0.0000       0.118810         3.2330 
  42   0.0000       0.128129         3.4866 
  43   0.0000       0.132476         3.6048 
  44   0.0000       0.142434         3.8758 
  45   0.0000       0.149316         4.0631 
  46   0.0000       0.153042         4.1645 
  47   0.0000       0.154521         4.2047 
  48   0.0000       0.164431         4.4744 
  49   0.0000       0.167243         4.5509 
  50   0.0000       0.180002         4.8981 
  51   0.0000       0.185394         5.0448 
  52   0.0000       0.194606         5.2955 
  53   0.0000       0.208850         5.6831 
  54   0.0000       0.223481         6.0812 
  55   0.0000       0.239663         6.5216 
  56   0.0000       0.245162         6.6712 
  57   0.0000       0.257694         7.0122 
  58   0.0000       0.271241         7.3808 
  59   0.0000       0.285785         7.7766 
  60   0.0000       0.303136         8.2487 
  61   0.0000       0.311138         8.4665 
  62   0.0000       0.313397         8.5280 
  63   0.0000       0.324538         8.8311 
  64   0.0000       0.333493         9.0748 
  65   0.0000       0.352862         9.6019 
  66   0.0000       0.360154         9.8003 
  67   0.0000       0.384846        10.4722 
  68   0.0000       0.389083        10.5875 
  69   0.0000       0.396973        10.8022 
  70   0.0000       0.401082        10.9140 
  71   0.0000       0.417965        11.3734 
  72   0.0000       0.420789        11.4503 
  73   0.0000       0.425952        11.5907 
  74   0.0000       0.429700        11.6927 
  75   0.0000       0.441275        12.0077 
  76   0.0000       0.445869        12.1327 
  77   0.0000       0.458403        12.4738 
  78   0.0000       0.462706        12.5909 
  79   0.0000       0.467513        12.7217 
  80   0.0000       0.472276        12.8513 
  81   0.0000       0.482464        13.1285 
  82   0.0000       0.485206        13.2031 
  83   0.0000       0.487583        13.2678 
  84   0.0000       0.495772        13.4906 
  85   0.0000       0.508739        13.8435 
  86   0.0000       0.510895        13.9022 
  87   0.0000       0.529559        14.4100 
  88   0.0000       0.542110        14.7516 
  89   0.0000       0.555324        15.1111 
  90   0.0000       0.582011        15.8373 
  91   0.0000       0.600363        16.3367 
  92   0.0000       0.616592        16.7783 
  93   0.0000       0.628212        17.0945 
  94   0.0000       0.637371        17.3438 
  95   0.0000       0.660206        17.9651 
  96   0.0000       0.671684        18.2774 
  97   0.0000       0.708000        19.2657 
  98   0.0000       0.728387        19.8204 
  99   0.0000       0.733987        19.9728 
 100   0.0000       0.774933        21.0870 
 101   0.0000       0.794051        21.6072 
 102   0.0000       0.826599        22.4929 
 103   0.0000       0.835934        22.7469 
 104   0.0000       0.854074        23.2405 
 105   0.0000       0.863046        23.4847 
 106   0.0000       0.870601        23.6902 
 107   0.0000       0.886746        24.1296 
 108   0.0000       0.923838        25.1389 
 109   0.0000       0.925587        25.1865 
 110   0.0000       0.947020        25.7697 
 111   0.0000       0.953009        25.9327 
 112   0.0000       0.984176        26.7808 
 113   0.0000       0.996424        27.1141 
 114   0.0000       1.013373        27.5753 
 115   0.0000       1.022171        27.8147 
 116   0.0000       1.039783        28.2939 
 117   0.0000       1.061785        28.8926 
 118   0.0000       1.074659        29.2430 
 119   0.0000       1.102768        30.0079 
 120   0.0000       1.129068        30.7235 
 121   0.0000       1.141233        31.0545 
 122   0.0000       1.160022        31.5658 
 123   0.0000       1.166370        31.7386 
 124   0.0000       1.191845        32.4318 
 125   0.0000       1.229606        33.4593 
 126   0.0000       1.270455        34.5708 
 127   0.0000       1.282343        34.8943 
 128   0.0000       1.302283        35.4369 
 129   0.0000       1.327372        36.1196 
 130   0.0000       1.411702        38.4144 
 131   0.0000       1.437460        39.1153 
 132   0.0000       1.454137        39.5691 
 133   0.0000       1.496472        40.7211 
 134   0.0000       1.505605        40.9696 
 135   0.0000       1.523368        41.4530 
 136   0.0000       1.526371        41.5347 
 137   0.0000       1.530435        41.6453 
 138   0.0000       1.542449        41.9722 
 139   0.0000       1.545557        42.0567 
 140   0.0000       1.552322        42.2408 
 141   0.0000       1.563580        42.5472 
 142   0.0000       1.571146        42.7531 
 143   0.0000       1.583362        43.0855 
 144   0.0000       1.598165        43.4883 
 145   0.0000       1.609925        43.8083 
 146   0.0000       1.625724        44.2382 
 147   0.0000       1.631953        44.4077 
 148   0.0000       1.653659        44.9983 
 149   0.0000       1.663336        45.2617 
 150   0.0000       1.674133        45.5555 
 151   0.0000       1.682993        45.7966 
 152   0.0000       1.714439        46.6522 
 153   0.0000       1.719668        46.7946 
 154   0.0000       1.737488        47.2795 
 155   0.0000       1.758975        47.8641 
 156   0.0000       1.784981        48.5718 
 157   0.0000       1.816610        49.4325 
 158   0.0000       1.825558        49.6760 
 159   0.0000       1.869196        50.8634 
 160   0.0000       1.919167        52.2232 
 161   0.0000       1.938727        52.7554 
 162   0.0000       1.948922        53.0329 
 163   0.0000       1.963829        53.4385 
 164   0.0000       1.975175        53.7472 
 165   0.0000       2.012553        54.7643 
 166   0.0000       2.019454        54.9521 
 167   0.0000       2.040296        55.5193 
 168   0.0000       2.081914        56.6518 
 169   0.0000       2.118535        57.6483 
 170   0.0000       2.150843        58.5274 
 171   0.0000       2.153159        58.5904 
 172   0.0000       2.169514        59.0355 
 173   0.0000       2.197205        59.7890 
 174   0.0000       2.221934        60.4619 
 175   0.0000       2.240885        60.9776 
 176   0.0000       2.273554        61.8666 
 177   0.0000       2.295190        62.4553 
 178   0.0000       2.315212        63.0001 
 179   0.0000       2.320782        63.1517 
 180   0.0000       2.334465        63.5240 
 181   0.0000       2.352822        64.0235 
 182   0.0000       2.368198        64.4419 
 183   0.0000       2.376352        64.6638 
 184   0.0000       2.386067        64.9282 
 185   0.0000       2.395532        65.1857 
 186   0.0000       2.401052        65.3360 
 187   0.0000       2.421606        65.8952 
 188   0.0000       2.437486        66.3274 
 189   0.0000       2.450552        66.6829 
 190   0.0000       2.455309        66.8124 
 191   0.0000       2.477556        67.4177 
 192   0.0000       2.499875        68.0251 
 193   0.0000       2.504375        68.1475 
 194   0.0000       2.540015        69.1173 
 195   0.0000       2.563861        69.7662 
 196   0.0000       2.572138        69.9914 
 197   0.0000       2.598350        70.7047 
 198   0.0000       2.604902        70.8830 
 199   0.0000       2.612574        71.0918 
 200   0.0000       2.627987        71.5112 
 201   0.0000       2.636626        71.7462 
 202   0.0000       2.647986        72.0554 
 203   0.0000       2.662632        72.4539 
 204   0.0000       2.676304        72.8259 
 205   0.0000       2.703802        73.5742 
 206   0.0000       2.708152        73.6926 
 207   0.0000       2.719283        73.9954 
 208   0.0000       2.723938        74.1221 
 209   0.0000       2.746211        74.7282 
 210   0.0000       2.762718        75.1774 
 211   0.0000       2.790396        75.9305 
 212   0.0000       2.805959        76.3540 
 213   0.0000       2.816909        76.6520 
 214   0.0000       2.850042        77.5536 
 215   0.0000       2.905345        79.0585 
 216   0.0000       2.929735        79.7221 
 217   0.0000       2.952016        80.3284 
 218   0.0000       2.956749        80.4572 
 219   0.0000       2.988893        81.3319 
 220   0.0000       3.067886        83.4814 
 221   0.0000       3.078115        83.7598 
 222   0.0000       3.088180        84.0337 
 223   0.0000       3.100770        84.3763 
 224   0.0000       3.105615        84.5081 
 225   0.0000       3.133855        85.2765 
 226   0.0000       3.159361        85.9706 
 227   0.0000       3.169399        86.2437 
 228   0.0000       3.194664        86.9312 
 229   0.0000       3.201505        87.1174 
 230   0.0000       3.242451        88.2316 
 231   0.0000       3.249246        88.4165 
 232   0.0000       3.259141        88.6857 
 233   0.0000       3.267438        88.9115 
 234   0.0000       3.298978        89.7698 
 235   0.0000       3.303268        89.8865 
 236   0.0000       3.330490        90.6272 
 237   0.0000       3.346926        91.0745 
 238   0.0000       3.362738        91.5047 
 239   0.0000       3.370327        91.7113 
 240   0.0000       3.394610        92.3720 
 241   0.0000       3.414512        92.9136 
 242   0.0000       3.430240        93.3416 
 243   0.0000       3.455459        94.0278 
 244   0.0000       3.467420        94.3533 
 245   0.0000       3.477795        94.6356 
 246   0.0000       3.518077        95.7318 
 247   0.0000       3.557315        96.7995 
 248   0.0000       3.562461        96.9395 
 249   0.0000       3.579773        97.4106 
 250   0.0000       3.585114        97.5559 
 251   0.0000       3.596904        97.8767 
 252   0.0000       3.606513        98.1382 
 253   0.0000       3.615175        98.3739 
 254   0.0000       3.638088        98.9974 
 255   0.0000       3.664187        99.7076 
 256   0.0000       3.685250       100.2808 
 257   0.0000       3.727977       101.4434 
 258   0.0000       3.789236       103.1103 
 259   0.0000       3.803300       103.4930 
 260   0.0000       3.865219       105.1780 
 261   0.0000       3.897919       106.0678 
 262   0.0000       3.902741       106.1990 
 263   0.0000       3.924867       106.8011 
 264   0.0000       3.973110       108.1138 
 265   0.0000       4.009210       109.0962 
 266   0.0000       4.036752       109.8456 
 267   0.0000       4.060047       110.4795 
 268   0.0000       4.066313       110.6500 
 269   0.0000       4.083131       111.1077 
 270   0.0000       4.098051       111.5136 
 271   0.0000       4.113079       111.9226 
 272   0.0000       4.138583       112.6166 
 273   0.0000       4.225869       114.9917 
 274   0.0000       4.306226       117.1784 
 275   0.0000       4.378711       119.1508 
 276   0.0000       4.393734       119.5596 
 277   0.0000       4.424296       120.3912 
 278   0.0000       4.434603       120.6717 
 279   0.0000       4.458736       121.3284 
 280   0.0000       4.474621       121.7606 
 281   0.0000       4.492346       122.2430 
 282   0.0000       4.497769       122.3905 
 283   0.0000       4.515755       122.8799 
 284   0.0000       4.568929       124.3269 
 285   0.0000       4.603615       125.2707 
 286   0.0000       4.626161       125.8842 
 287   0.0000       4.692627       127.6929 
 288   0.0000       4.728949       128.6812 
 289   0.0000       4.775262       129.9415 
 290   0.0000       4.816909       131.0748 
 291   0.0000       4.868884       132.4891 
 292   0.0000       4.900278       133.3433 
 293   0.0000       4.933923       134.2589 
 294   0.0000       4.967143       135.1628 
 295   0.0000       5.023044       136.6840 
 296   0.0000       5.201501       141.5400 
 297   0.0000       5.252158       142.9185 
 298   0.0000       5.305010       144.3567 
 299   0.0000       5.415000       147.3496 
 300   0.0000       5.452291       148.3644 
 301   0.0000       5.483035       149.2010 
 302   0.0000       5.689900       154.8301 
 303   0.0000       5.807164       158.0210 
 304   0.0000       5.846913       159.1026 
 305   0.0000       5.913259       160.9080 
 306   0.0000       6.092476       165.7847 
 307   0.0000      14.737693       401.0330 
 308   0.0000      22.301127       606.8445 
 309   0.0000      22.318412       607.3149 
 310   0.0000      22.344383       608.0216 
 311   0.0000      22.362205       608.5065 
 312   0.0000      22.616455       615.4250 
 313   0.0000      22.658965       616.5818 
 314   0.0000      32.592489       886.8867 

                    ********************************
                    * MULLIKEN POPULATION ANALYSIS *
                    ********************************

-----------------------
MULLIKEN ATOMIC CHARGES
-----------------------
   0 N :   -0.840572
   1 C :    0.158378
   2 C :    0.119365
   3 C :   -0.340039
   4 C :   -0.338885
   5 H :    0.012315
   6 C :   -0.294056
   7 H :    0.010174
   8 C :   -0.387664
   9 H :    0.087266
  10 H :    0.090101
  11 H :    0.106607
  12 H :    0.091650
  13 H :    0.101705
  14 H :    0.098993
  15 H :    0.107745
  16 H :    0.087929
  17 H :    0.070758
  18 H :    0.099201
  19 H :    0.111773
  20 H :    0.117821
  21 Li:    0.729434
Sum of atomic charges:   -0.0000000

--------------------------------
MULLIKEN REDUCED ORBITAL CHARGES
--------------------------------
  0 N s       :     3.724561  s :     3.724561
      pz      :     1.312014  p :     4.064542
      px      :     1.137099
      py      :     1.615430
      dz2     :     0.010293  d :     0.047937
      dxz     :     0.012378
      dyz     :     0.006078
      dx2y2   :     0.010479
      dxy     :     0.008708
      f0      :     0.000526  f :     0.003531
      f+1     :     0.000473
      f-1     :     0.000459
      f+2     :     0.000570
      f-2     :     0.000332
      f+3     :     0.000587
      f-3     :     0.000584
  1 C s       :     3.071982  s :     3.071982
      pz      :     0.941662  p :     2.588473
      px      :     0.773117
      py      :     0.873694
      dz2     :     0.031037  d :     0.169173
      dxz     :     0.035531
      dyz     :     0.018300
      dx2y2   :     0.039580
      dxy     :     0.044724
      f0      :     0.001461  f :     0.011994
      f+1     :     0.001160
      f-1     :     0.001208
      f+2     :     0.001949
      f-2     :     0.000808
      f+3     :     0.002206
      f-3     :     0.003203
  2 C s       :     3.086912  s :     3.086912
      pz      :     0.826464  p :     2.611554
      px      :     0.883882
      py      :     0.901208
      dz2     :     0.034695  d :     0.170222
      dxz     :     0.028820
      dyz     :     0.037306
      dx2y2   :     0.036018
      dxy     :     0.033383
      f0      :     0.001931  f :     0.011947
      f+1     :     0.001613
      f-1     :     0.001582
      f+2     :     0.002371
      f-2     :     0.001101
      f+3     :     0.001702
      f-3     :     0.001647
  3 C s       :     3.223399  s :     3.223399
      pz      :     1.015167  p :     3.052454
      px      :     1.015929
      py      :     1.021358
      dz2     :     0.023103  d :     0.059650
      dxz     :     0.003768
      dyz     :     0.005508
      dx2y2   :     0.022704
      dxy     :     0.004568
      f0      :     0.000776  f :     0.004536
      f+1     :     0.000729
      f-1     :     0.000581
      f+2     :     0.000601
      f-2     :     0.000337
      f+3     :     0.000840
      f-3     :     0.000672
  4 C s       :     3.231202  s :     3.231202
      pz      :     1.026282  p :     3.042712
      px      :     1.042543
      py      :     0.973887
      dz2     :     0.014545  d :     0.060345
      dxz     :     0.003154
      dyz     :     0.015528
      dx2y2   :     0.014281
      dxy     :     0.012837
      f0      :     0.000679  f :     0.004625
      f+1     :     0.000594
      f-1     :     0.000631
      f+2     :     0.000470
      f-2     :     0.000523
      f+3     :     0.001076
      f-3     :     0.000652
  5 H s       :     0.967568  s :     0.967568
      pz      :     0.011057  p :     0.020117
      px      :     0.004837
      py      :     0.004224
  6 C s       :     3.179820  s :     3.179820
      pz      :     1.030032  p :     3.050806
      px      :     1.051106
      py      :     0.969668
      dz2     :     0.006784  d :     0.058921
      dxz     :     0.005616
      dyz     :     0.021067
      dx2y2   :     0.011222
      dxy     :     0.014232
      f0      :     0.000345  f :     0.004508
      f+1     :     0.000753
      f-1     :     0.000826
      f+2     :     0.000568
      f-2     :     0.000315
      f+3     :     0.001028
      f-3     :     0.000674
  7 H s       :     0.970052  s :     0.970052
      pz      :     0.009294  p :     0.019774
      px      :     0.005203
      py      :     0.005277
  8 C s       :     3.262375  s :     3.262375
      pz      :     1.051469  p :     3.058451
      px      :     0.962540
      py      :     1.044442
      dz2     :     0.007058  d :     0.062137
      dxz     :     0.021045
      dyz     :     0.005425
      dx2y2   :     0.012749
      dxy     :     0.015859
      f0      :     0.000356  f :     0.004701
      f+1     :     0.000827
      f-1     :     0.000800
      f+2     :     0.000537
      f-2     :     0.000320
      f+3     :     0.000708
      f-3     :     0.001152
  9 H s       :     0.893039  s :     0.893039
      pz      :     0.010306  p :     0.019695
      px      :     0.004736
      py      :     0.004653
 10 H s       :     0.890110  s :     0.890110
      pz      :     0.004568  p :     0.019789
      px      :     0.010485
      py      :     0.004737
 11 H s       :     0.873084  s :     0.873084
      pz      :     0.005115  p :     0.020309
      px      :     0.004820
      py      :     0.010375
 12 H s       :     0.888712  s :     0.888712
      pz      :     0.009842  p :     0.019639
      px      :     0.004900
      py      :     0.004896
 13 H s       :     0.878359  s :     0.878359
      pz      :     0.006271  p :     0.019936
      px      :     0.005841
      py      :     0.007824
 14 H s       :     0.881248  s :     0.881248
      pz      :     0.004493  p :     0.019759
      px      :     0.010196
      py      :     0.005070
 15 H s       :     0.872050  s :     0.872050
      pz      :     0.004651  p :     0.020205
      px      :     0.010332
      py      :     0.005222
 16 H s       :     0.892141  s :     0.892141
      pz      :     0.008082  p :     0.019930
      px      :     0.005713
      py      :     0.006135
 17 H s       :     0.909497  s :     0.909497
      pz      :     0.008622  p :     0.019745
      px      :     0.005041
      py      :     0.006082
 18 H s       :     0.881234  s :     0.881234
      pz      :     0.008007  p :     0.019565
      px      :     0.005996
      py      :     0.005561
 19 H s       :     0.868385  s :     0.868385
      pz      :     0.008347  p :     0.019843
      px      :     0.006118
      py      :     0.005378
 20 H s       :     0.862465  s :     0.862465
      pz      :     0.004371  p :     0.019714
      px      :     0.004934
      py      :     0.010409
 21 Lis       :     2.065303  s :     2.065303
      pz      :     0.073047  p :     0.205263
      px      :     0.039319
      py      :     0.092897


                     *******************************
                     * LOEWDIN POPULATION ANALYSIS *
                     *******************************

----------------------
LOEWDIN ATOMIC CHARGES
----------------------
   0 N :   -0.144665
   1 C :   -0.400284
   2 C :   -0.415582
   3 C :   -0.299273
   4 C :   -0.296517
   5 H :    0.127373
   6 C :   -0.299009
   7 H :    0.121712
   8 C :   -0.293443
   9 H :    0.113927
  10 H :    0.107859
  11 H :    0.108777
  12 H :    0.116562
  13 H :    0.110557
  14 H :    0.110191
  15 H :    0.110017
  16 H :    0.107433
  17 H :    0.110189
  18 H :    0.120756
  19 H :    0.115988
  20 H :    0.116532
  21 Li:    0.550901

-------------------------------
LOEWDIN REDUCED ORBITAL CHARGES
-------------------------------
  0 N s       :     3.055675  s :     3.055675
      pz      :     1.312212  p :     3.889577
      px      :     1.168584
      py      :     1.408781
      dz2     :     0.038534  d :     0.184409
      dxz     :     0.048681
      dyz     :     0.022764
      dx2y2   :     0.039881
      dxy     :     0.034548
      f0      :     0.002825  f :     0.015005
      f+1     :     0.002386
      f-1     :     0.001647
      f+2     :     0.002767
      f-2     :     0.001236
      f+3     :     0.002044
      f-3     :     0.002100
  1 C s       :     2.744802  s :     2.744802
      pz      :     0.992110  p :     2.927558
      px      :     0.933021
      py      :     1.002427
      dz2     :     0.119191  d :     0.654204
      dxz     :     0.129953
      dyz     :     0.078091
      dx2y2   :     0.157990
      dxy     :     0.168979
      f0      :     0.007870  f :     0.073720
      f+1     :     0.007593
      f-1     :     0.006801
      f+2     :     0.012451
      f-2     :     0.007806
      f+3     :     0.013073
      f-3     :     0.018125
  2 C s       :     2.745403  s :     2.745403
      pz      :     0.942781  p :     2.924759
      px      :     0.989773
      py      :     0.992205
      dz2     :     0.158731  d :     0.671985
      dxz     :     0.112165
      dyz     :     0.137746
      dx2y2   :     0.158133
      dxy     :     0.105211
      f0      :     0.011732  f :     0.073435
      f+1     :     0.009903
      f-1     :     0.010413
      f+2     :     0.012638
      f-2     :     0.008756
      f+3     :     0.010200
      f-3     :     0.009794
  3 C s       :     2.841876  s :     2.841876
      pz      :     1.057902  p :     3.163446
      px      :     1.052990
      py      :     1.052553
      dz2     :     0.091611  d :     0.268875
      dxz     :     0.024156
      dyz     :     0.031604
      dx2y2   :     0.095056
      dxy     :     0.026447
      f0      :     0.002773  f :     0.025077
      f+1     :     0.004150
      f-1     :     0.003349
      f+2     :     0.003954
      f-2     :     0.004050
      f+3     :     0.003739
      f-3     :     0.003062
  4 C s       :     2.839680  s :     2.839680
      pz      :     1.057339  p :     3.159913
      px      :     1.060275
      py      :     1.042299
      dz2     :     0.064952  d :     0.271434
      dxz     :     0.018598
      dyz     :     0.062842
      dx2y2   :     0.070783
      dxy     :     0.054259
      f0      :     0.002947  f :     0.025491
      f+1     :     0.002946
      f-1     :     0.003453
      f+2     :     0.002993
      f-2     :     0.004572
      f+3     :     0.005287
      f-3     :     0.003294
  5 H s       :     0.817385  s :     0.817385
      pz      :     0.029855  p :     0.055242
      px      :     0.012921
      py      :     0.012467
  6 C s       :     2.843866  s :     2.843866
      pz      :     1.061104  p :     3.164695
      px      :     1.059726
      py      :     1.043865
      dz2     :     0.039587  d :     0.265555
      dxz     :     0.024698
      dyz     :     0.077879
      dx2y2   :     0.064480
      dxy     :     0.058911
      f0      :     0.002042  f :     0.024893
      f+1     :     0.003171
      f-1     :     0.003945
      f+2     :     0.002615
      f-2     :     0.003278
      f+3     :     0.006023
      f-3     :     0.003818
  7 H s       :     0.823952  s :     0.823952
      pz      :     0.025462  p :     0.054336
      px      :     0.014191
      py      :     0.014682
  8 C s       :     2.833418  s :     2.833418
      pz      :     1.055693  p :     3.161618
      px      :     1.045936
      py      :     1.059989
      dz2     :     0.041255  d :     0.272509
      dxz     :     0.079823
      dyz     :     0.024256
      dx2y2   :     0.065346
      dxy     :     0.061828
      f0      :     0.002145  f :     0.025898
      f+1     :     0.003804
      f-1     :     0.003348
      f+2     :     0.002679
      f-2     :     0.003550
      f+3     :     0.003885
      f-3     :     0.006487
  9 H s       :     0.825442  s :     0.825442
      pz      :     0.032320  p :     0.060631
      px      :     0.014537
      py      :     0.013774
 10 H s       :     0.830615  s :     0.830615
      pz      :     0.013694  p :     0.061526
      px      :     0.033778
      py      :     0.014055
 11 H s       :     0.829261  s :     0.829261
      pz      :     0.015411  p :     0.061962
      px      :     0.014413
      py      :     0.032138
 12 H s       :     0.823067  s :     0.823067
      pz      :     0.031567  p :     0.060371
      px      :     0.014971
      py      :     0.013833
 13 H s       :     0.828256  s :     0.828256
      pz      :     0.020120  p :     0.061188
      px      :     0.018301
      py      :     0.022766
 14 H s       :     0.828552  s :     0.828552
      pz      :     0.013443  p :     0.061257
      px      :     0.033851
      py      :     0.013963
 15 H s       :     0.828182  s :     0.828182
      pz      :     0.013577  p :     0.061801
      px      :     0.033562
      py      :     0.014662
 16 H s       :     0.830897  s :     0.830897
      pz      :     0.026536  p :     0.061669
      px      :     0.018238
      py      :     0.016895
 17 H s       :     0.828604  s :     0.828604
      pz      :     0.028157  p :     0.061207
      px      :     0.015554
      py      :     0.017496
 18 H s       :     0.818728  s :     0.818728
      pz      :     0.026388  p :     0.060515
      px      :     0.016973
      py      :     0.017155
 19 H s       :     0.822827  s :     0.822827
      pz      :     0.027522  p :     0.061184
      px      :     0.017019
      py      :     0.016643
 20 H s       :     0.822159  s :     0.822159
      pz      :     0.013266  p :     0.061310
      px      :     0.013869
      py      :     0.034174
 21 Lis       :     2.108680  s :     2.108680
      pz      :     0.135577  p :     0.340419
      px      :     0.085170
      py      :     0.119671


                      *****************************
                      * MAYER POPULATION ANALYSIS *
                      *****************************

  NA   - Mulliken gross atomic population
  ZA   - Total nuclear charge
  QA   - Mulliken gross atomic charge
  VA   - Mayer's total valence
  BVA  - Mayer's bonded valence
  FA   - Mayer's free valence

  ATOM       NA         ZA         QA         VA         BVA        FA
  0 N      7.8406     7.0000    -0.8406     2.4747     2.4747     0.0000
  1 C      5.8416     6.0000     0.1584     3.8245     3.8245    -0.0000
  2 C      5.8806     6.0000     0.1194     3.9352     3.9352    -0.0000
  3 C      6.3400     6.0000    -0.3400     3.8495     3.8495    -0.0000
  4 C      6.3389     6.0000    -0.3389     3.8722     3.8722     0.0000
  5 H      0.9877     1.0000     0.0123     0.9791     0.9791    -0.0000
  6 C      6.2941     6.0000    -0.2941     3.6822     3.6822    -0.0000
  7 H      0.9898     1.0000     0.0102     0.9672     0.9672     0.0000
  8 C      6.3877     6.0000    -0.3877     3.8772     3.8772     0.0000
  9 H      0.9127     1.0000     0.0873     0.9881     0.9881    -0.0000
 10 H      0.9099     1.0000     0.0901     0.9798     0.9798    -0.0000
 11 H      0.8934     1.0000     0.1066     0.9873     0.9873     0.0000
 12 H      0.9084     1.0000     0.0916     0.9795     0.9795    -0.0000
 13 H      0.8983     1.0000     0.1017     0.9913     0.9913     0.0000
 14 H      0.9010     1.0000     0.0990     0.9759     0.9759     0.0000
 15 H      0.8923     1.0000     0.1077     0.9834     0.9834    -0.0000
 16 H      0.9121     1.0000     0.0879     0.9826     0.9826     0.0000
 17 H      0.9292     1.0000     0.0708     1.0231     1.0231     0.0000
 18 H      0.9008     1.0000     0.0992     0.9780     0.9780    -0.0000
 19 H      0.8882     1.0000     0.1118     0.9783     0.9783    -0.0000
 20 H      0.8822     1.0000     0.1178     0.9806     0.9806    -0.0000
 21 Li     2.2706     3.0000     0.7294     0.5319     0.5319    -0.0000

  Mayer bond orders larger than 0.100000
B(  0-N ,  1-C ) :   0.9289 B(  0-N ,  2-C ) :   1.0722 B(  0-N ,  6-C ) :  -0.1083 
B(  0-N , 21-Li) :   0.4331 B(  1-C ,  3-C ) :   0.9774 B(  1-C ,  4-C ) :   0.9747 
B(  1-C ,  5-H ) :   0.9099 B(  2-C ,  6-C ) :   0.9353 B(  2-C ,  7-H ) :   0.9240 
B(  2-C ,  8-C ) :   0.9680 B(  3-C ,  9-H ) :   0.9633 B(  3-C , 10-H ) :   0.9607 
B(  3-C , 11-H ) :   0.9731 B(  4-C , 12-H ) :   0.9638 B(  4-C , 13-H ) :   0.9764 
B(  4-C , 14-H ) :   0.9642 B(  6-C , 15-H ) :   0.9710 B(  6-C , 16-H ) :   0.9530 
B(  6-C , 17-H ) :   0.9596 B(  8-C , 18-H ) :   0.9674 B(  8-C , 19-H ) :   0.9649 
B(  8-C , 20-H ) :   0.9722 

-------
TIMINGS
-------

Total SCF time: 0 days 0 hours 1 min 20 sec 

Total time                  ....      80.814 sec
Sum of individual times     ....      79.837 sec  ( 98.8%)

Fock matrix formation       ....      76.040 sec  ( 94.1%)
  Split-RI-J                ....       9.549 sec  ( 12.6% of F)
  XC integration            ....      47.992 sec  ( 63.1% of F)
    Basis function eval.    ....       6.331 sec  ( 13.2% of XC)
    Density eval.           ....      19.786 sec  ( 41.2% of XC)
    XC-Functional eval.     ....       2.101 sec  (  4.4% of XC)
    XC-Potential eval.      ....      17.544 sec  ( 36.6% of XC)
Diagonalization             ....       0.634 sec  (  0.8%)
Density matrix formation    ....       0.038 sec  (  0.0%)
Population analysis         ....       0.058 sec  (  0.1%)
Initial guess               ....       0.775 sec  (  1.0%)
Orbital Transformation      ....       0.000 sec  (  0.0%)
Orbital Orthonormalization  ....       0.000 sec  (  0.0%)
DIIS solution               ....       0.283 sec  (  0.4%)
SOSCF solution              ....       0.423 sec  (  0.5%)
Grid generation             ....       1.586 sec  (  2.0%)

Maximum memory used throughout the entire SCF-calculation: 50.5 MB


-------------------------------------------------------------------------------
                          DFT DISPERSION CORRECTION                            
                                                                               
                              DFTD3 V3.1  Rev 1                                
                          USING Becke-Johnson damping                          
-------------------------------------------------------------------------------
The TPSS functional is recognized
Active option DFTDOPT                   ...         4   

molecular C6(AA) [au] = 3874.566607 


            DFT-D V3
 parameters
 s6 scaling factor         :     1.0000 
 a1 scaling factor         :     0.4535 
 s8 scaling factor         :     1.9435 
 a2 scaling factor         :     4.4752 
 ad hoc parameters k1-k3   :    16.0000     1.3333    -4.0000 

 Edisp/kcal,au: -16.271561014669  -0.025930380260 
 E6   /kcal   :  -8.255730099 
 E8   /kcal   :  -8.015830916 
 % E8         :  49.262826772 

-------------------------   ----------------
Dispersion correction           -0.025930380
-------------------------   ----------------


-------------------------   --------------------
FINAL SINGLE POINT ENERGY      -299.531681606600
-------------------------   --------------------



           ************************************************************
           *        Program running with 4 parallel MPI-processes     *
           *              working on a common directory               *
           ************************************************************
[...]
     63       0.000797  -0.000135   0.000263   0.000113   0.000053  -0.000134
     64      -0.000514   0.000091  -0.000132  -0.000117   0.000657   0.000183
     65      -0.000717  -0.000115   0.000036  -0.000175  -0.000140   0.000016
                 60         61         62         63         64         65    
      0       0.000164  -0.000126  -0.000082  -0.000549  -0.000151  -0.000035
      1       0.000535  -0.000082  -0.000338  -0.000110   0.000228   0.000309
      2      -0.000288   0.000844   0.000143  -0.000365  -0.000060   0.000225
      3      -0.000782  -0.003790   0.000853   0.000501   0.000219   0.000671
      4      -0.000192  -0.001391   0.000665  -0.000040  -0.000255  -0.001454
      5      -0.002037  -0.008638  -0.003245   0.000137  -0.000776  -0.003064
      6       0.000670  -0.000116  -0.000237   0.001238   0.002024  -0.000706
      7      -0.002413   0.000709  -0.000186   0.000791  -0.001576   0.000311
      8       0.004405  -0.001762   0.000158   0.002702   0.001496  -0.000144
      9      -0.013386  -0.041184  -0.002198   0.000544   0.008528   0.027983
     10       0.002105   0.001099   0.006880  -0.000195  -0.021987  -0.070824
     11      -0.010433  -0.037291   0.004828   0.000022  -0.012037  -0.036891
     12      -0.012835  -0.052838   0.051299   0.004198   0.002798   0.003637
     13       0.000789   0.004454   0.044472   0.003065   0.002662   0.004104
     14      -0.010147  -0.041288  -0.059395  -0.004054  -0.003200  -0.004051
     15       0.005515   0.025635   0.005543  -0.001911   0.000481   0.005655
     16       0.002073   0.010444   0.002237  -0.000376   0.001382   0.003417
     17       0.017978   0.077362   0.024463  -0.002862   0.005007   0.022294
     18      -0.014128   0.003605  -0.003054   0.004513   0.083671  -0.026154
     19      -0.010860   0.002635   0.000519  -0.000680  -0.008981   0.002212
     20       0.085006  -0.022727  -0.000999   0.006807   0.014485  -0.002736
     21      -0.010940   0.003101  -0.000457  -0.004866  -0.007769   0.001332
     22       0.015595  -0.005810   0.000979   0.005669   0.009858  -0.001779
     23      -0.028157   0.013101  -0.000927  -0.012545  -0.015133   0.002601
     24      -0.000438  -0.000158   0.001662  -0.023417   0.000576   0.000051
     25      -0.014121   0.003815  -0.003660   0.054343  -0.004751   0.000582
     26       0.002916   0.000245  -0.004683   0.066277  -0.003717   0.000571
     27       0.032712   0.113529  -0.009655   0.000167   0.024074   0.072038
     28       0.020157   0.066087  -0.004247  -0.000227   0.005000   0.016469
     29       0.131823   0.451849  -0.030089  -0.000307   0.075028   0.227116
     30       0.121944   0.382186   0.008034  -0.007561  -0.052697  -0.170438
     31      -0.010831  -0.035957  -0.000233   0.000262   0.000277   0.002130
     32       0.008069   0.023885   0.001882  -0.000288  -0.007521  -0.023423
     33       0.007953   0.003684   0.024345  -0.000394  -0.075481  -0.245809
     34      -0.035904  -0.046051  -0.079356   0.002032   0.255164   0.829508
     35      -0.014333  -0.024901  -0.024576   0.000566   0.075890   0.248015
     36       0.037210   0.147782   0.083830   0.005669   0.004583   0.004907
     37       0.020933   0.084353   0.046779   0.002955   0.002669   0.004169
     38       0.111890   0.446808   0.182844   0.011295   0.009780   0.010498
     39      -0.012786  -0.059286  -0.356466  -0.024806  -0.020329  -0.028969
     40      -0.016718  -0.078322  -0.620959  -0.043520  -0.035820  -0.051648
     41       0.012219   0.059182   0.546479   0.038386   0.030956   0.043678
     42       0.129595   0.549672  -0.347286  -0.032142  -0.019611  -0.023135
     43      -0.011968  -0.051264   0.041061   0.003888   0.002784   0.003781
     44      -0.001444  -0.006697  -0.015386  -0.001001  -0.000855  -0.001291
     45       0.115194  -0.027069   0.031262  -0.056085  -0.880759   0.280826
     46       0.008998  -0.001652   0.003527  -0.006217  -0.095400   0.030104
     47       0.034863  -0.008753   0.002589  -0.004166  -0.074352   0.022776
     48       0.278590  -0.076379   0.000914   0.020070  -0.052451   0.022556
     49      -0.240765   0.066861  -0.001708  -0.017821   0.058840  -0.022343
     50      -0.506691   0.139574  -0.003766  -0.035417   0.137777  -0.052482
     51      -0.223997   0.058974   0.004318  -0.016564  -0.070238   0.014738
     52       0.366105  -0.096200  -0.008055   0.029434   0.149665  -0.035595
     53      -0.553397   0.145194   0.012765  -0.044204  -0.234849   0.056012
     54      -0.027219   0.006052   0.003030  -0.039335  -0.000746  -0.000195
     55       0.030470  -0.006233  -0.004645   0.060774  -0.001863   0.000754
     56      -0.058428   0.012341   0.005244  -0.064703  -0.000722  -0.000767
     57      -0.005680   0.005736  -0.028813   0.409951  -0.025018   0.003240
     58       0.003046  -0.005081   0.026024  -0.369038   0.020873  -0.002641
     59       0.013233  -0.011771   0.051293  -0.730541   0.043350  -0.005584
     60       0.036983  -0.009290   0.006619  -0.099923   0.012151  -0.001817
     61       0.136992  -0.034575   0.023134  -0.347670   0.039694  -0.005215
     62       0.005608  -0.001255  -0.000025  -0.000373   0.001267  -0.000199
     63      -0.000003   0.000467   0.000014   0.000493   0.000051   0.000034
     64      -0.000201  -0.000052  -0.000003  -0.000175  -0.000084  -0.000011
     65       0.000019   0.000071  -0.000012  -0.000785  -0.000015  -0.000073


-----------
IR SPECTRUM
-----------

 Mode   freq       eps      Int      T**2         TX        TY        TZ
       cm**-1   L/(mol*cm) km/mol    a.u.
----------------------------------------------------------------------------
  6:     58.63   0.000593    3.00  0.003157  ( 0.000433  0.054480 -0.013743)
  7:     69.94   0.005044   25.49  0.022505  (-0.092150 -0.033285  0.113604)
  8:     92.01   0.020493  103.56  0.069506  ( 0.181849 -0.114620 -0.152640)
  9:    156.41   0.015610   78.89  0.031145  ( 0.007404  0.161142 -0.071577)
 10:    190.15   0.001054    5.33  0.001730  (-0.027924 -0.026990  0.014897)
 11:    234.05   0.000056    0.28  0.000075  ( 0.007341  0.004529 -0.000422)
 12:    242.78   0.000173    0.88  0.000223  (-0.007224  0.013021  0.000950)
 13:    268.85   0.000396    2.00  0.000460  ( 0.008951  0.013581 -0.013970)
 14:    280.23   0.000041    0.21  0.000046  ( 0.002892 -0.005489  0.002711)
 15:    310.31   0.000251    1.27  0.000252  ( 0.004282  0.014225 -0.005601)
 16:    323.28   0.000361    1.83  0.000349  ( 0.012303  0.013320 -0.004472)
 17:    378.19   0.000404    2.04  0.000333  (-0.004103  0.017489  0.003240)
 18:    457.72   0.003517   17.77  0.002398  ( 0.005248  0.009874 -0.047671)
 19:    473.77   0.001993   10.07  0.001313  ( 0.008265  0.030257 -0.018139)
 20:    500.65   0.005131   25.93  0.003198  ( 0.025221 -0.044191  0.024681)
 21:    619.64   0.009992   50.49  0.005032  (-0.046364 -0.029166 -0.045076)
 22:    805.75   0.001239    6.26  0.000480  (-0.005027 -0.006167 -0.020411)
 23:    831.92   0.003009   15.21  0.001129  (-0.013843 -0.009693 -0.029039)
 24:    886.10   0.000414    2.09  0.000146  ( 0.008428  0.005367 -0.006792)
 25:    886.79   0.000928    4.69  0.000326  (-0.007924 -0.012563 -0.010285)
 26:    893.51   0.006309   31.89  0.002204  (-0.023088 -0.030474 -0.027237)
 27:    902.18   0.003478   17.58  0.001203  ( 0.016070  0.015778  0.026380)
 28:    929.01   0.010165   51.37  0.003415  ( 0.022399  0.017673  0.050995)
 29:   1019.26   0.009855   49.80  0.003017  ( 0.048709 -0.014569 -0.020792)
 30:   1086.53   0.003148   15.91  0.000904  (-0.024235  0.017699  0.001888)
 31:   1099.94   0.002630   13.29  0.000746  ( 0.003541 -0.026292  0.006518)
 32:   1118.26   0.013785   69.66  0.003847  ( 0.052396 -0.014795 -0.029709)
 33:   1144.28   0.014222   71.87  0.003879  (-0.059727 -0.009572 -0.014819)
 34:   1154.05   0.027962  141.31  0.007561  ( 0.061875 -0.034805 -0.050212)
 35:   1177.33   0.007508   37.94  0.001990  (-0.006957  0.024963  0.036313)
 36:   1291.03   0.020466  103.43  0.004947  ( 0.052102 -0.021721 -0.041959)
 37:   1306.62   0.003872   19.57  0.000925  (-0.001781 -0.029122  0.008573)
 38:   1324.64   0.004555   23.02  0.001073  (-0.007372 -0.025615 -0.019045)
 39:   1338.51   0.001489    7.53  0.000347  ( 0.016808  0.006553 -0.004661)
 40:   1353.03   0.000499    2.52  0.000115  (-0.007070 -0.007436 -0.003145)
 41:   1358.90   0.002469   12.48  0.000567  (-0.007452 -0.022083  0.004887)
 42:   1371.38   0.001858    9.39  0.000423  ( 0.018220 -0.009414  0.001472)
 43:   1376.31   0.001336    6.75  0.000303  ( 0.003806  0.004904  0.016259)
 44:   1460.89   0.000097    0.49  0.000021  ( 0.003248 -0.000410  0.003160)
 45:   1463.61   0.000172    0.87  0.000037  (-0.002925  0.001001 -0.005201)
 46:   1465.19   0.000123    0.62  0.000026  (-0.000275 -0.005119 -0.000139)
 47:   1471.95   0.001743    8.81  0.000369  (-0.001990 -0.015699  0.010909)
 48:   1475.99   0.000387    1.96  0.000082  ( 0.003604  0.008056  0.001990)
 49:   1479.06   0.002038   10.30  0.000430  ( 0.006804 -0.000648  0.019577)
 50:   1482.17   0.001366    6.90  0.000288  ( 0.006933 -0.004938  0.014668)
 51:   1490.89   0.000472    2.39  0.000099  (-0.001828 -0.003686  0.009051)
 52:   2772.46   0.057654  291.36  0.006489  (-0.009292  0.022149 -0.076893)
 53:   2857.89   0.032277  163.12  0.003524  ( 0.026349  0.001393  0.053181)
 54:   2942.68   0.017045   86.14  0.001808  ( 0.032300  0.004342  0.027303)
 55:   2956.38   0.014160   71.56  0.001495  ( 0.021190  0.031712 -0.006327)
 56:   2959.35   0.022574  114.08  0.002380  ( 0.015126 -0.043785 -0.015313)
 57:   2963.36   0.018857   95.30  0.001986  ( 0.029720 -0.010146 -0.031617)
 58:   3005.30   0.013911   70.30  0.001444  ( 0.010057  0.033596 -0.014650)
 59:   3008.43   0.000876    4.43  0.000091  (-0.003194 -0.006707 -0.005970)
 60:   3014.10   0.017539   88.64  0.001816  (-0.023144 -0.004247  0.035529)
 61:   3015.88   0.049455  249.92  0.005117  (-0.051122  0.007447 -0.049481)
 62:   3043.47   0.017242   87.13  0.001768  ( 0.022000  0.020740 -0.029218)
 63:   3044.50   0.013010   65.75  0.001334  (-0.008103  0.022815  0.027337)
 64:   3050.63   0.018291   92.43  0.001871  ( 0.040200 -0.015635 -0.003257)
 65:   3060.39   0.010143   51.26  0.001034  ( 0.003587 -0.026338 -0.018103)

* The epsilon (eps) is given for a Dirac delta lineshape.
** The dipole moment derivative (T) already includes vibrational overlap.

The first frequency considered to be a vibration is 6
The total number of vibrations considered is 60


--------------------------
THERMOCHEMISTRY AT 298.15K
--------------------------

Temperature         ... 298.15 K
Pressure            ... 1.00 atm
Total Mass          ... 107.13 AMU

Throughout the following assumptions are being made:
  (1) The electronic state is orbitally nondegenerate
  (2) There are no thermally accessible electronically excited states
  (3) Hindered rotations indicated by low frequency modes are not
      treated as such but are treated as vibrations and this may
      cause some error
  (4) All equations used are the standard statistical mechanics
      equations for an ideal gas
  (5) All vibrations are strictly harmonic

freq.      58.63  E(vib)   ...       0.51 
freq.      69.94  E(vib)   ...       0.50 
freq.      92.01  E(vib)   ...       0.47 
freq.     156.41  E(vib)   ...       0.40 
freq.     190.15  E(vib)   ...       0.36 
freq.     234.05  E(vib)   ...       0.32 
freq.     242.78  E(vib)   ...       0.31 
freq.     268.85  E(vib)   ...       0.29 
freq.     280.23  E(vib)   ...       0.28 
freq.     310.31  E(vib)   ...       0.26 
freq.     323.28  E(vib)   ...       0.25 
freq.     378.19  E(vib)   ...       0.21 
freq.     457.72  E(vib)   ...       0.16 
freq.     473.77  E(vib)   ...       0.15 
freq.     500.65  E(vib)   ...       0.14 
freq.     619.64  E(vib)   ...       0.09 
freq.     805.75  E(vib)   ...       0.05 
freq.     831.92  E(vib)   ...       0.04 
freq.     886.10  E(vib)   ...       0.04 
freq.     886.79  E(vib)   ...       0.04 
freq.     893.51  E(vib)   ...       0.03 
freq.     902.18  E(vib)   ...       0.03 
freq.     929.01  E(vib)   ...       0.03 
freq.    1019.26  E(vib)   ...       0.02 
freq.    1086.53  E(vib)   ...       0.02 
freq.    1099.94  E(vib)   ...       0.02 
freq.    1118.26  E(vib)   ...       0.01 
freq.    1144.28  E(vib)   ...       0.01 
freq.    1154.05  E(vib)   ...       0.01 
freq.    1177.33  E(vib)   ...       0.01 
freq.    1291.03  E(vib)   ...       0.01 
freq.    1306.62  E(vib)   ...       0.01 
freq.    1324.64  E(vib)   ...       0.01 
freq.    1338.51  E(vib)   ...       0.01 
freq.    1353.03  E(vib)   ...       0.01 
freq.    1358.90  E(vib)   ...       0.01 
freq.    1371.38  E(vib)   ...       0.01 
freq.    1376.31  E(vib)   ...       0.01 
freq.    1460.89  E(vib)   ...       0.00 
freq.    1463.61  E(vib)   ...       0.00 
freq.    1465.19  E(vib)   ...       0.00 
freq.    1471.95  E(vib)   ...       0.00 
freq.    1475.99  E(vib)   ...       0.00 
freq.    1479.06  E(vib)   ...       0.00 
freq.    1482.17  E(vib)   ...       0.00 
freq.    1490.89  E(vib)   ...       0.00 
freq.    2772.46  E(vib)   ...       0.00 
freq.    2857.89  E(vib)   ...       0.00 
freq.    2942.68  E(vib)   ...       0.00 
freq.    2956.38  E(vib)   ...       0.00 
freq.    2959.35  E(vib)   ...       0.00 
freq.    2963.36  E(vib)   ...       0.00 
freq.    3005.30  E(vib)   ...       0.00 
freq.    3008.43  E(vib)   ...       0.00 
freq.    3014.10  E(vib)   ...       0.00 
freq.    3015.88  E(vib)   ...       0.00 
freq.    3043.47  E(vib)   ...       0.00 
freq.    3044.50  E(vib)   ...       0.00 
freq.    3050.63  E(vib)   ...       0.00 
freq.    3060.39  E(vib)   ...       0.00 

------------
INNER ENERGY
------------

The inner energy is: U= E(el) + E(ZPE) + E(vib) + E(rot) + E(trans)
    E(el)   - is the total energy from the electronic structure calculation
              = E(kin-el) + E(nuc-el) + E(el-el) + E(nuc-nuc)
    E(ZPE)  - the the zero temperature vibrational energy from the frequency calculation
    E(vib)  - the the finite temperature correction to E(ZPE) due to population
              of excited vibrational states
    E(rot)  - is the rotational thermal energy
    E(trans)- is the translational thermal energy

Summary of contributions to the inner energy U:
Electronic energy                ...   -299.53540193 Eh
Zero point energy                ...      0.18862434 Eh     118.36 kcal/mol
Thermal vibrational correction   ...      0.00819278 Eh       5.14 kcal/mol
Thermal rotational correction    ...      0.00141627 Eh       0.89 kcal/mol
Thermal translational correction ...      0.00141627 Eh       0.89 kcal/mol
-----------------------------------------------------------------------
Total thermal energy                   -299.33575227 Eh


Summary of corrections to the electronic energy:
(perhaps to be used in another calculation)
Total thermal correction                  0.01102532 Eh       6.92 kcal/mol
Non-thermal (ZPE) correction              0.18862434 Eh     118.36 kcal/mol
-----------------------------------------------------------------------
Total correction                          0.19964966 Eh     125.28 kcal/mol


--------
ENTHALPY
--------

The enthalpy is H = U + kB*T
                kB is Boltzmann's constant
Total free energy                 ...   -299.33575227 Eh 
Thermal Enthalpy correction       ...      0.00094421 Eh       0.59 kcal/mol
-----------------------------------------------------------------------
Total Enthalpy                    ...   -299.33480806 Eh


Note: Only C1 symmetry has been detected, increase convergence thresholds 
      if your molecule has a higher symmetry. Symmetry factor of 1.0 is   
      used for the rotational entropy correction. 
 

Note: Rotational entropy computed according to Herzberg 
Infrared and Raman Spectra, Chapter V,1, Van Nostrand Reinhold, 1945 
Point Group:  C1, Symmetry Number:   1  
Rotational constants in cm-1:     0.106890     0.048972     0.040187 

Vibrational entropy computed according to the QRRHO of S. Grimme
Chem.Eur.J. 2012 18 9955


-------
ENTROPY
-------

The entropy contributions are T*S = T*(S(el)+S(vib)+S(rot)+S(trans))
     S(el)   - electronic entropy
     S(vib)  - vibrational entropy
     S(rot)  - rotational entropy
     S(trans)- translational entropy
The entropies will be listed as multiplied by the temperature to get
units of energy

Electronic entropy                ...      0.00000000 Eh      0.00 kcal/mol
Vibrational entropy               ...      0.01415134 Eh      8.88 kcal/mol
Rotational entropy                ...      0.01350785 Eh      8.48 kcal/mol
Translational entropy             ...      0.01896873 Eh     11.90 kcal/mol
-----------------------------------------------------------------------
Final entropy term                ...      0.04662792 Eh     29.26 kcal/mol

In case the symmetry of your molecule has not been determined correctly
or in case you have a reason to use a different symmetry number we print 
out the resulting rotational entropy values for sn=1,12 :
 --------------------------------------------------------
|  sn= 1 | S(rot)=       0.01350785 Eh      8.48 kcal/mol|
|  sn= 2 | S(rot)=       0.01285339 Eh      8.07 kcal/mol|
|  sn= 3 | S(rot)=       0.01247056 Eh      7.83 kcal/mol|
|  sn= 4 | S(rot)=       0.01219893 Eh      7.65 kcal/mol|
|  sn= 5 | S(rot)=       0.01198824 Eh      7.52 kcal/mol|
|  sn= 6 | S(rot)=       0.01181610 Eh      7.41 kcal/mol|
|  sn= 7 | S(rot)=       0.01167055 Eh      7.32 kcal/mol|
|  sn= 8 | S(rot)=       0.01154448 Eh      7.24 kcal/mol|
|  sn= 9 | S(rot)=       0.01143327 Eh      7.17 kcal/mol|
|  sn=10 | S(rot)=       0.01133379 Eh      7.11 kcal/mol|
|  sn=11 | S(rot)=       0.01124380 Eh      7.06 kcal/mol|
|  sn=12 | S(rot)=       0.01116164 Eh      7.00 kcal/mol|
 --------------------------------------------------------


-------------------
GIBBS FREE ENERGY
-------------------

The Gibbs free energy is G = H - T*S

Total enthalpy                    ...   -299.33480806 Eh 
Total entropy correction          ...     -0.04662792 Eh    -29.26 kcal/mol
-----------------------------------------------------------------------
Final Gibbs free energy         ...   -299.38143597 Eh

For completeness - the Gibbs free energy minus the electronic energy
G-E(el)                           ...      0.15396596 Eh     96.61 kcal/mol



Timings for individual modules:

Sum of individual times         ...     6961.005 sec (= 116.017 min)
GTO integral calculation        ...       20.046 sec (=   0.334 min)   0.3 %
SCF iterations                  ...      771.801 sec (=  12.863 min)  11.1 %
SCF Gradient evaluation         ...      337.362 sec (=   5.623 min)   4.8 %
Geometry relaxation             ...        2.395 sec (=   0.040 min)   0.0 %
Numerical frequency calculation ...     5829.401 sec (=  97.157 min)  83.7 %
                             ****ORCA TERMINATED NORMALLY****
TOTAL RUN TIME: 0 days 1 hours 55 minutes 37 seconds 991 msec
‘LDA_freqopt.cpcm’ -> ‘/home/rothe/Calc/Li_Path/THF/LDA/LDA_freqopt.cpcm’
‘LDA_freqopt.densities’ -> ‘/home/rothe/Calc/Li_Path/THF/LDA/LDA_freqopt.densities’
‘LDA_freqopt.engrad’ -> ‘/home/rothe/Calc/Li_Path/THF/LDA/LDA_freqopt.engrad’
‘LDA_freqopt.gbw’ -> ‘/home/rothe/Calc/Li_Path/THF/LDA/LDA_freqopt.gbw’
‘LDA_freqopt.hess’ -> ‘/home/rothe/Calc/Li_Path/THF/LDA/LDA_freqopt.hess’
‘LDA_freqopt.job’ -> ‘/home/rothe/Calc/Li_Path/THF/LDA/LDA_freqopt.job’
‘LDA_freqopt.opt’ -> ‘/home/rothe/Calc/Li_Path/THF/LDA/LDA_freqopt.opt’
‘LDA_freqopt_property.txt’ -> ‘/home/rothe/Calc/Li_Path/THF/LDA/LDA_freqopt_property.txt’
‘LDA_freqopt_trj.xyz’ -> ‘/home/rothe/Calc/Li_Path/THF/LDA/LDA_freqopt_trj.xyz’
‘LDA_freqopt.xyz’ -> ‘/home/rothe/Calc/Li_Path/THF/LDA/LDA_freqopt.xyz’
