22
 energy: -23.423611903142 gnorm: 0.035895894565 xtb: 6.4.1 (afa7bdf)
N        -3.72674682510000   -2.59717943830000   -0.66076464200000
C        -2.26110514520000   -2.71548232790000   -0.65240613220000
C        -4.30764909770000   -1.83898768190000    0.45862887100000
H        -4.13318312620000   -3.53240367900000   -0.64664277810000
C        -1.60189204210000   -1.58323557560000   -1.44290573060000
C        -1.88305740290000   -4.04989797420000   -1.31187379060000
H        -1.87292258480000   -2.73390376530000    0.37288405030000
C        -3.97825487420000   -0.34785832570000    0.42942947970000
H        -3.96594370320000   -2.26287427920000    1.41101437910000
C        -5.82953519840000   -2.01888601860000    0.39480336660000
H        -2.06390519750000   -1.46280893800000   -2.42929795960000
H        -0.53661597520000   -1.78698488750000   -1.59879210110000
H        -1.66499891980000   -0.62454480030000   -0.92451518690000
H        -2.24918383280000   -4.10520368370000   -2.34383268760000
H        -2.30015280710000   -4.89793974830000   -0.75762211070000
H        -0.79492299980000   -4.17655895270000   -1.33627425880000
H        -2.94553851740000   -0.16617497630000    0.74050045060000
H        -4.61779727250000    0.21046365000000    1.12198184110000
H        -4.12465490030000    0.07684078890000   -0.57003633490000
H        -6.23673792680000   -1.65548956300000   -0.55582457460000
H        -6.32213362060000   -1.46757072270000    1.20340803830000
H        -6.10694866130000   -3.07355491650000    0.50204009300000
22
 energy: -23.425517369935 gnorm: 0.012493391844 xtb: 6.4.1 (afa7bdf)
N        -3.71828590263164   -2.56510368778532   -0.66288130591242
C        -2.25996552554249   -2.71423676877837   -0.66191501032577
C        -4.31478553343892   -1.84017899836000    0.46324804339889
H        -4.13230068848162   -3.49337700628955   -0.67069904571961
C        -1.59854805866333   -1.58080727617806   -1.44457255676060
C        -1.88625632758705   -4.05220005250230   -1.30717948755474
H        -1.87120286945972   -2.71480387062510    0.37043976977760
C        -3.97206510612301   -0.35455419701607    0.42933445506700
H        -3.95882894876473   -2.25431486528683    1.42469056880383
C        -5.83262083178067   -2.02572742134161    0.39627858229550
H        -2.07310758840963   -1.48199644077448   -2.41967594045738
H        -0.54041845992623   -1.79918514163126   -1.59355655021607
H        -1.67354577705660   -0.62648515726696   -0.92988310001277
H        -2.25895127495299   -4.09113436474901   -2.33030469802599
H        -2.30922841328012   -4.89022709369672   -0.75109958727834
H        -0.80337183183412   -4.17467113278468   -1.33007422106061
H        -2.94156782800790   -0.17387656053513    0.73194107255720
H        -4.61835150769654    0.18593449628300    1.12128353820418
H        -4.12529782789358    0.04824825233349   -0.57073024973696
H        -6.21415514983625   -1.65717510854374   -0.55515307718680
H        -6.31839580080527   -1.47627898116482    1.20240015813454
H        -6.10262937872760   -3.07808443910649    0.49201092400933
22
 energy: -23.425942414688 gnorm: 0.004951617627 xtb: 6.4.1 (afa7bdf)
N        -3.71312335413393   -2.54531702407802   -0.66560464239414
C        -2.25954858431431   -2.70830609938778   -0.66022002914137
C        -4.31190762269226   -1.84350592707488    0.46738369579912
H        -4.13755611871610   -3.46767446134452   -0.70600630154975
C        -1.59158706505502   -1.58345819548003   -1.45370461939671
C        -1.89609042844186   -4.04957381958329   -1.29856674769156
H        -1.87166918579066   -2.69795959716512    0.37783881925425
C        -3.97598178102317   -0.35449249640432    0.43669345153440
H        -3.94865257804110   -2.25855281129064    1.43239131288398
C        -5.82684238898583   -2.03353478518739    0.39439817740211
H        -2.06970727026098   -1.49957442038985   -2.42515639245970
H        -0.53655633061139   -1.80591962769982   -1.59505732970902
H        -1.67513745004017   -0.62965817351504   -0.94627441773328
H        -2.27155067523863   -4.08358937481352   -2.31782723398468
H        -2.32403024994671   -4.87897952038549   -0.73838895581511
H        -0.81662585986660   -4.17368483706381   -1.31967705210418
H        -2.94559207035591   -0.17770929695548    0.73076314920645
H        -4.62016143249858    0.18073762624373    1.13029825217285
H        -4.13360292856470    0.03551749064338   -0.56434385318697
H        -6.19526403237224   -1.65870616527759   -0.55630058721205
H        -6.31184074997946   -1.49083185924258    1.20113376801112
H        -6.09085247397039   -3.08546244034796    0.48012981811426
22
 energy: -23.426149051856 gnorm: 0.005472230733 xtb: 6.4.1 (afa7bdf)
N        -3.70913897050266   -2.52699618911865   -0.66995682829143
C        -2.25899399193705   -2.70144866101110   -0.66064386965581
C        -4.30921541262200   -1.84503548905128    0.46912367476421
H        -4.14590837397436   -3.44229339580811   -0.74745087677043
C        -1.58339553760184   -1.58506714126735   -1.46449575138738
C        -1.90357209019959   -4.04998178330446   -1.28673352934919
H        -1.87293123023096   -2.68209074141194    0.37976521318084
C        -3.97974991443376   -0.35190880125087    0.44683558615070
H        -3.94069061871692   -2.26639223713141    1.43223372123825
C        -5.82272632873677   -2.04202390140129    0.39464275722351
H        -2.05764957048504   -1.51587858382235   -2.43831490161493
H        -0.52856707299522   -1.80905887870438   -1.59590639322799
H        -1.67408228678097   -0.62663143852469   -0.96816061470300
H        -2.28102954505150   -4.08602599011615   -2.30460742653224
H        -2.33824095679856   -4.87094239678013   -0.72013472636089
H        -0.82572183744064   -4.18175034626341   -1.30766794048495
H        -2.94745721473363   -0.17619524197560    0.73240479272021
H        -4.62010877817839    0.17826214507745    1.14624420028997
H        -4.14547370834637    0.03617148773924   -0.55280692057897
H        -6.18650035438229   -1.65997760314998   -0.55418122163256
H        -6.31176048554123   -1.50913219706993    1.20443413364365
H        -6.08096635121028   -3.09583843145363    0.46927920337844
22
 energy: -23.426358604350 gnorm: 0.006577579120 xtb: 6.4.1 (afa7bdf)
N        -3.70541350746511   -2.50565899441604   -0.67806565800397
C        -2.25854514035182   -2.69281527540412   -0.66298387265423
C        -4.30667780200927   -1.84697560789100    0.46951805167906
H        -4.15646623304434   -3.41003102816973   -0.80140378881527
C        -1.57429152999324   -1.58775994228628   -1.47903037278095
C        -1.91040304325560   -4.05164255574549   -1.27124495206795
H        -1.87546695868220   -2.66161613553610    0.37798323411888
C        -3.98377906563019   -0.34997165973952    0.46070905294215
H        -3.93312558284133   -2.27753285349440    1.42751514812519
C        -5.81935357125998   -2.05065698437779    0.39543211526778
H        -2.03713129631066   -1.53635885749057   -2.46005583981883
H        -0.51694139721102   -1.80959123794219   -1.59341614732432
H        -1.67654117019118   -0.62130909270734   -0.99874583667006
H        -2.28802270029558   -4.09822264595768   -2.28933718398092
H        -2.35234341132895   -4.86166103963984   -0.69364972326447
H        -0.83343040474429   -4.19361523525430   -1.29088699361717
H        -2.94773495594972   -0.17537102799468    0.73476864701429
H        -4.61710185659882    0.17309089949942    1.17177424871157
H        -4.16154261484908    0.04490324014288   -0.53458502389907
H        -6.18520721972283   -1.65935805063683   -0.54927608972082
H        -6.31313053947381   -1.53072372331138    1.21127188666889
H        -6.07123062969102   -3.10735800744703    0.45761138009023
22
 energy: -23.426572043311 gnorm: 0.006000004220 xtb: 6.4.1 (afa7bdf)
N        -3.70325538297075   -2.48380466053308   -0.69073786919226
C        -2.25884096516900   -2.68330801480198   -0.66921592639860
C        -4.30568778595158   -1.84861889261466    0.46709424167456
H        -4.16610429445949   -3.37431460330028   -0.85725754756914
C        -1.56505667084783   -1.59166856236771   -1.49657519908329
C        -1.91575975978259   -4.05447691385705   -1.25370644726911
H        -1.88015582226775   -2.63816087004292    0.37101663071876
C        -3.98759017724462   -0.34935771086861    0.47738097473112
H        -3.92777058758682   -2.29034917504872    1.41739613449731
C        -5.81767379352268   -2.05837191120884    0.39625876873738
H        -2.00905200288165   -1.56025140244667   -2.48842831888861
H        -0.50309689296892   -1.80747472761440   -1.58699028939211
H        -1.68336606093708   -0.61567784375247   -1.03615400187892
H        -2.29040607121642   -4.11854454097386   -2.27321912790128
H        -2.36432367169431   -4.85210080123233   -0.66244979114307
H        -0.83912667227582   -4.20524291867623   -1.26911380240839
H        -2.94670265740490   -0.17682600018210    0.73756118877025
H        -4.61061425200045    0.16362990458501    1.20591830110621
H        -4.18056872055990    0.06116911427806   -0.50984734611669
H        -6.19150038812848   -1.65634226405910   -0.54184862359108
H        -6.31328245165161   -1.55228680528085    1.22080961389150
H        -6.06394554937739   -3.11785621580124    0.44601071870544
22
 energy: -23.426789164398 gnorm: 0.005071343994 xtb: 6.4.1 (afa7bdf)
N        -3.70200031546594   -2.45848683204524   -0.70878508850116
C        -2.25950150869254   -2.67197772908261   -0.67957547222257
C        -4.30633313002659   -1.85016004663368    0.46249058217169
H        -4.17512160989435   -3.33193391972734   -0.91848898262706
C        -1.55482211079273   -1.59764769066783   -1.51926966132824
C        -1.92037660527665   -4.05780469394871   -1.23275444999952
H        -1.88696749069329   -2.60908339184233    0.35962297712605
C        -3.99169474838532   -0.35041994625082    0.49857837801337
H        -3.92385584602254   -2.30685815702342    1.40230754661208
C        -5.81749941348117   -2.06549551615245    0.39652886384225
H        -1.97280976960445   -1.59118857866739   -2.52437475855679
H        -0.48737561594494   -1.80416947016356   -1.57816724364683
H        -1.69426934063532   -0.61093673785185   -1.08465538847208
H        -2.28857928378479   -4.14594280833110   -2.25410421412644
H        -2.37590292272981   -4.84007006330441   -0.62512165430448
H        -0.84397655561785   -4.21533144179126   -1.23921115229678
H        -2.94515442564482   -0.18122518849444    0.74108356381292
H        -4.60066711185267    0.14754684842061    1.25088660211973
H        -4.20423680887300    0.08385837384694   -0.47594730725798
H        -6.20329793736830   -1.65048325638530   -0.53216492044427
H        -6.31095557176800   -1.57509538465062    1.23283352355897
H        -6.05848250834499   -3.12733018505323    0.43219053852709
22
 energy: -23.426965002897 gnorm: 0.005104510681 xtb: 6.4.1 (afa7bdf)
N        -3.70069921040071   -2.43228114585530   -0.72820952910211
C        -2.25971734251493   -2.65998440789666   -0.69113661263497
C        -4.30808215529305   -1.85115101896605    0.45677664183701
H        -4.18216634588257   -3.28875609507159   -0.97601606781768
C        -1.54434694464950   -1.60504884612180   -1.54422970870186
C        -1.92456514044489   -4.06013621690213   -1.21066254500124
H        -1.89370711674408   -2.57824290959510    0.34736673447177
C        -3.99593328475763   -0.35254591025977    0.52196589055710
H        -3.92065975213558   -2.32503626680422    1.38459873709414
C        -5.81828911060418   -2.07174617696786    0.39536268583091
H        -1.93626424171723   -1.62629667599773   -2.56037270072404
H        -0.47317930603304   -1.80181563382661   -1.57214163585237
H        -1.70453709363364   -0.60828972104651   -1.13863162655650
H        -2.28460650631501   -4.17259715994465   -2.23309363010556
H        -2.38804163285455   -4.82570910845322   -0.58754149497344
H        -0.84859486876903   -4.22251249237951   -1.20500801533770
H        -2.94410805979498   -0.18682372316908    0.74490048561265
H        -4.58932371457228    0.12682490565768    1.29982438480984
H        -4.22988539198544    0.10745874593855   -0.43689798827586
H        -6.21542755461721   -1.64287358820386   -0.52278138084111
H        -6.30711549301605   -1.59742833318242    1.24410206574806
H        -6.05463036416452   -3.13524403675223    0.41572759196293
22
 energy: -23.427122066213 gnorm: 0.004901780406 xtb: 6.4.1 (afa7bdf)
N        -3.69836519136097   -2.40388562716192   -0.74752518764940
C        -2.25916516689414   -2.64647646529706   -0.70278783399680
C        -4.30979503212359   -1.85225239688534    0.45150341404646
H        -4.18721171062858   -3.24354488284771   -1.03154942143267
C        -1.53339258061259   -1.61359540944038   -1.57208347017371
C        -1.92958728387674   -4.06069982439023   -1.18666934617417
H        -1.89918719444531   -2.54430685408732    0.33509487293901
C        -4.00057851703566   -0.35573079744455    0.54810303149212
H        -3.91777171820113   -2.34542028804937    1.36640278444966
C        -5.81889979075532   -2.07788633951435    0.39222179735986
H        -1.90133793349363   -1.66636679159960   -2.59585085950936
H        -0.46070852562794   -1.80131701641108   -1.57076272435367
H        -1.71218757926621   -0.60746188771524   -1.19889795879639
H        -2.28055436992361   -4.19662358904379   -2.20911647134416
H        -2.40320601710765   -4.80769974673333   -0.54920158925585
H        -0.85455232091179   -4.22826664519512   -1.16667825778465
H        -2.94409891664344   -0.19251371829037    0.74934816094771
H        -4.57721553273152    0.10162844457704    1.35172145311947
H        -4.25753524956844    0.12965195792238   -0.39250018636015
H        -6.22470066462885   -1.63360404761188   -0.51465385147054
H        -6.30302143927713   -1.62131718921433    1.25331107390875
H        -6.05080789578594   -3.14254670136651    0.39447285203842
22
 energy: -23.427280050030 gnorm: 0.004418224132 xtb: 6.4.1 (afa7bdf)
N        -3.69435928831455   -2.37132089499511   -0.76639003371581
C        -2.25770779920130   -2.62958836911837   -0.71480429945218
C        -4.31095634598943   -1.85417217787752    0.44704235824155
H        -4.18919395663910   -3.19327791830315   -1.08692724517471
C        -1.52141180493340   -1.62351384945440   -1.60570000687576
C        -1.93688996342305   -4.05890951192423   -1.15852854476503
H        -1.90203672988315   -2.50289551192054    0.32152459357869
C        -4.00570362642651   -0.36041898150957    0.57970587554063
H        -3.91545051632317   -2.36966424822345    1.34774613775191
C        -5.81882040825966   -2.08478082831739    0.38582448791519
H        -1.86649624541774   -1.71562487453312   -2.63415443988092
H        -0.44863728202433   -1.80229648773439   -1.57439963412860
H        -1.71788844238386   -0.60748566669611   -1.27122161704568
H        -2.27812353808866   -4.21887773535717   -2.17999913402781
H        -2.42412707868755   -4.78381893377549   -0.50661743955019
H        -0.86365141229501   -4.23419527001856   -1.12205821334241
H        -2.94489661932692   -0.19874289638408    0.75581870149226
H        -4.56291391584643    0.07002570051212    1.41089228141445
H        -4.28873534967625    0.15089884215921   -0.33892653030444
H        -6.22953568998080   -1.62134818561564   -0.50864840443163
H        -6.30013505805373   -1.65003198835871    1.25935744601934
H        -6.04620955972558   -3.15019602835443    0.36436594274107
22
 energy: -23.427438620902 gnorm: 0.003854044419 xtb: 6.4.1 (afa7bdf)
N        -3.68860650416832   -2.33632062979575   -0.78263030762127
C        -2.25522846955647   -2.60965776160429   -0.72646100343221
C        -4.31136656555438   -1.85736880458712    0.44374993340680
H        -4.18766384009335   -3.14064227995596   -1.13910023965854
C        -1.50958833161993   -1.63488313616068   -1.64467263250069
C        -1.94601730595340   -4.05449375586894   -1.12637633994537
H        -1.90015569036199   -2.45463651737049    0.30594875644026
C        -4.01079440202734   -0.36694790345363    0.61638577442302
H        -3.91456271402910   -2.39649802757791    1.32986483987585
C        -5.81810673864596   -2.09181211804479    0.37500698384898
H        -1.83483503056799   -1.77187230966134   -2.67357745456399
H        -0.43758255576701   -1.80398901761126   -1.58516227667270
H        -1.72125030977773   -0.60904009396750   -1.35405920680125
H        -2.27799905628590   -4.23925315788310   -2.14609740108827
H        -2.44937800566475   -4.75428272167220   -0.45979633779467
H        -0.87552877009870   -4.24046382814882   -1.07251415537862
H        -2.94590741271225   -0.20553884300329    0.76429565928087
H        -4.54500861556107    0.03199158644620    1.47765245466596
H        -4.32322610541498    0.17112647744177   -0.27654038452290
H        -6.22955149224397   -1.60554262870807   -0.50639654681725
H        -6.30015820354561   -1.68295464623882    1.26016753468183
H        -6.04136451125002   -3.15715569837415    0.32421463217408
22
 energy: -23.427593560872 gnorm: 0.003351988146 xtb: 6.4.1 (afa7bdf)
N        -3.68113396055680   -2.29684400929262   -0.79752326463358
C        -2.25175872986694   -2.58608119180735   -0.73853562941266
C        -4.31079478873930   -1.86223234465736    0.44153210373238
H        -4.18379342219793   -3.08208319181793   -1.19349734723441
C        -1.49847473704829   -1.64885927883353   -1.69076357906952
C        -1.95661284575152   -4.04733695388134   -1.08839389072268
H        -1.89377187350447   -2.39819103107964    0.28669767289821
C        -4.01566493545968   -0.37601584050634    0.66075954291009
H        -3.91545739130564   -2.42749525718811    1.31197019637275
C        -5.81647593673014   -2.09902389980763    0.35973435330563
H        -1.80455699100651   -1.83838516354061   -2.71720920437790
H        -0.42690976776463   -1.80590182988860   -1.60319389860075
H        -1.72518359033180   -0.61267639259939   -1.45131749785459
H        -2.27928644369758   -4.26060009672594   -2.10572822841722
H        -2.47835201460822   -4.71799195947048   -0.40611384570353
H        -0.88983867197382   -4.24678263249971   -1.01578825408601
H        -2.94742635155972   -0.21225255963344    0.77729592617222
H        -4.52312360697990   -0.01361544794333    1.55321034438765
H        -4.36099245592552    0.19147948054337   -0.20101393587423
H        -6.22515149144643   -1.58529055846892   -0.50717172506124
H        -6.30311136726870   -1.72104582320049    1.25593924724376
H        -6.03600925717671   -3.16300983350075    0.27301319602550
22
 energy: -23.427649252500 gnorm: 0.010151015683 xtb: 6.4.1 (afa7bdf)
N        -3.67235476706121   -2.26283221871274   -0.80437081734942
C        -2.24657135532427   -2.56191028151066   -0.74877366328358
C        -4.30922298559797   -1.86809917966029    0.44046810661858
H        -4.16958925994474   -3.03335221606225   -1.21800896078453
C        -1.49228329073352   -1.66483562048292   -1.73803365696849
C        -1.96731139469806   -4.03518732825280   -1.05065571015576
H        -1.87792863487908   -2.34119730643213    0.26428263056514
C        -4.01915597413487   -0.38861507178703    0.70661767423672
H        -3.92075028459415   -2.45728419504694    1.29668749444415
C        -5.81437252851619   -2.10293886491904    0.33721499977012
H        -1.79248570410546   -1.90040401813434   -2.74987745251585
H        -0.42389619315479   -1.81067411620308   -1.64052735180166
H        -1.72036808030278   -0.62507549880927   -1.54534822543324
H        -2.28345582884613   -4.27423083136237   -2.06343989830906
H        -2.50671321904544   -4.67692796702418   -0.35677468912577
H        -0.90518925510913   -4.24811206666952   -0.96066166141482
H        -2.95151735643728   -0.21792554697279    0.79749683026993
H        -4.50126164980701   -0.06581717242513    1.62324758095295
H        -4.39227978343470    0.20512794458927   -0.12052973966633
H        -6.21304159263789   -1.56145857250634   -0.51622009892254
H        -6.31115632725095   -1.75602865059452    1.23890697904857
H        -6.03297516528470   -3.16245703682113    0.21220191182475
22
 energy: -23.427845484449 gnorm: 0.007161935965 xtb: 6.4.1 (afa7bdf)
N        -3.66243305687959   -2.21339752323642   -0.82261799706448
C        -2.24131280750748   -2.53266860824616   -0.76324199047768
C        -4.30782106608425   -1.87527100284462    0.43700718091578
H        -4.16572848842883   -2.95963304688206   -1.28934114964697
C        -1.48156857929896   -1.68382054653034   -1.79532490468093
C        -1.97907269962760   -4.02545636806052   -1.00135868325131
H        -1.86781468645101   -2.26944175915012    0.23879883562445
C        -4.02422657062736   -0.40224761077113    0.76239576878916
H        -3.92189469151954   -2.49717812691348    1.27329866274556
C        -5.81189082386993   -2.10983078826203    0.31684852152509
H        -1.75980145424990   -1.98441260789879   -2.80324541699189
H        -0.41135006990333   -1.81188214140490   -1.66682881584706
H        -1.73032642619177   -0.63252951769706   -1.66563342226378
H        -2.28644737199571   -4.30225373235449   -2.01008671696925
H        -2.53815819646173   -4.63068873242715   -0.28632969002161
H        -0.92150342409844   -4.25327780652231   -0.89057526240988
H        -2.95256667568353   -0.22853557515231    0.81600527205293
H        -4.47256045169962   -0.12747453192152    1.71874358180370
H        -4.43798960768202    0.23008632424413   -0.02411543004180
H        -6.20669232381311   -1.53424724807201   -0.51826123379581
H        -6.31583525505868   -1.80028407787694    1.23014103630306
H        -6.02688590376797   -3.16579078782000    0.14762413570255
22
 energy: -23.427882302369 gnorm: 0.009792679709 xtb: 6.4.1 (afa7bdf)
N        -3.66001013093888   -2.20561688029866   -0.82291868287695
C        -2.23933402342751   -2.52912394597335   -0.76391751432087
C        -4.30777413197952   -1.87695801845317    0.43832204682982
H        -4.16821283003028   -2.94858475307640   -1.30559684475192
C        -1.48280662351247   -1.68786375689513   -1.80094620388227
C        -1.97968759770133   -4.02141841773605   -0.99499907752113
H        -1.86390360079098   -2.26234136241037    0.23434726272536
C        -4.02344055471466   -0.40757848694844    0.76997733676124
H        -3.92277240881509   -2.50245192672276    1.27150312460976
C        -5.81137125927527   -2.10929407057288    0.31469386296671
H        -1.76218344415887   -1.99552916903969   -2.80648937609845
H        -0.41045491485929   -1.81348131570530   -1.67411135461335
H        -1.73452892379103   -0.63678839999052   -1.67796293230957
H        -2.29097547170947   -4.30250132826985   -2.00056405853827
H        -2.53662719930676   -4.62223567382281   -0.27646324572544
H        -0.92268311607424   -4.24820448214880   -0.88517320199627
H        -2.95422046458104   -0.23078772597079    0.82731107983662
H        -4.47319119838201   -0.13509830651153    1.71875364394974
H        -4.43192037023712    0.22197760992489   -0.01299589031095
H        -6.20520175138248   -1.53215742747337   -0.51813788151550
H        -6.31676131231981   -1.80154264557869    1.22604190786046
H        -6.02581930291230   -3.16265533212656    0.14322828092105
22
 energy: -23.428063386053 gnorm: 0.005012640531 xtb: 6.4.1 (afa7bdf)
N        -3.65471600406724   -2.17846778790839   -0.83353456079845
C        -2.23597292569815   -2.51064403637004   -0.77347030854468
C        -4.30737794078173   -1.88079555792636    0.43365077485949
H        -4.15869177478295   -2.90866011584917   -1.32899969212532
C        -1.47888171147926   -1.70154949806788   -1.83537712793786
C        -1.98638727859125   -4.01159744973260   -0.96461995185078
H        -1.85659153222264   -2.21931467152593    0.21561040713085
C        -4.02566987471301   -0.41931057284350    0.80409492839390
H        -3.92465267594519   -2.52724091792289    1.25227836081558
C        -5.81022827077036   -2.11097813223499    0.29862148816617
H        -1.75300025988060   -2.04089699958572   -2.83163442367700
H        -0.40648642080549   -1.81969340619465   -1.70288773413047
H        -1.73396247757572   -0.64845167471863   -1.74595892695382
H        -2.29615947353050   -4.31524031937028   -1.96453936490681
H        -2.55175339309887   -4.58956402799647   -0.23316314136031
H        -0.93181070707270   -4.24455118145459   -0.84375212714061
H        -2.95568616552732   -0.23870724806953    0.84450145054739
H        -4.45763067795466   -0.17832113593464    1.77182999296807
H        -4.45429408891441    0.23253324740294    0.04812509761707
H        -6.20062783646143   -1.51321237592815   -0.52206979482923
H        -6.32015991051756   -1.82506098378982    1.21526471921090
H        -6.02313923050940   -3.16051096977898    0.09993221654574
22
 energy: -23.428268766057 gnorm: 0.007284541237 xtb: 6.4.1 (afa7bdf)
N        -3.64524874931221   -2.13406954949114   -0.85111721643037
C        -2.22955282954209   -2.48191486442543   -0.78747679979004
C        -4.30640296537305   -1.88659198060251    0.42345758131040
H        -4.14636075085077   -2.84184610669499   -1.37351620040186
C        -1.47530451414644   -1.72621985583832   -1.88755227958736
C        -1.99551043756726   -3.99371437984072   -0.91357974168307
H        -1.84387741644964   -2.14916322630431    0.18539184587120
C        -4.02814691503245   -0.44140955512286    0.85628446810685
H        -3.92730079751403   -2.56691402547025    1.21590879959608
C        -5.80800994328256   -2.11191970417333    0.27204599585526
H        -1.74952074059121   -2.10974103339622   -2.86460931085423
H        -0.40290339247846   -1.83556386168069   -1.75827327900055
H        -1.72959190146608   -0.67279945854322   -1.84740890089330
H        -2.30861761493609   -4.33636825052066   -1.90047469182255
H        -2.56704332495765   -4.53479641477977   -0.15882102558112
H        -0.94383564448883   -4.23211934636690   -0.78151203774080
H        -2.95762277734386   -0.25372521905277    0.87632816295452
H        -4.43541723308346   -0.25527191745989    1.85301628548641
H        -4.48648268281411    0.24927990526117    0.14551743339111
H        -6.19404761219529   -1.48331522264130   -0.52823446348995
H        -6.32335841145687   -1.85865945632711    1.19608480904550
H        -6.01972397601809   -3.15339229232908    0.03244284765767
22
 energy: -23.428402076502 gnorm: 0.012617059596 xtb: 6.4.1 (afa7bdf)
N        -3.63959354606805   -2.10663816741932   -0.86217013713131
C        -2.22553569251491   -2.46173302190027   -0.79585680719972
C        -4.30607071322580   -1.89088295432857    0.41496177080750
H        -4.13440098730352   -2.79919296807615   -1.39343997105704
C        -1.47720911756676   -1.74426383588299   -1.92030506964433
C        -2.00071533412394   -3.97624246294912   -0.87988062240725
H        -1.83629880083245   -2.10131429550221    0.16435439798445
C        -4.02678306220360   -0.46159732779639    0.89171744479944
H        -3.93044805925488   -2.59506654190108    1.18645681195429
C        -5.80709067606566   -2.10984277117666    0.25330060387885
H        -1.75602585297331   -2.16081019548352   -2.88611091583120
H        -0.40146761848766   -1.85141600326751   -1.79685729452790
H        -1.73227692769499   -0.68811067329178   -1.91508504502946
H        -2.32355478117206   -4.34544186211100   -1.85325380573127
H        -2.56887298983713   -4.49309142753448   -0.10754739063629
H        -0.94918213467043   -4.21437048937701   -0.74924766170318
H        -2.95905143709284   -0.26942711068744    0.91642141499955
H        -4.42906896787703   -0.30795669080870    1.89117663957426
H        -4.48577258094833    0.24878511985545    0.20823361052705
H        -6.19028337927795   -1.45947098521691   -0.53174398053984
H        -6.32382543239750   -1.87760740405370    1.18294463434453
H        -6.02035253931177   -3.14454374689098   -0.01416634543136
22
 energy: -23.428556555135 gnorm: 0.011554681844 xtb: 6.4.1 (afa7bdf)
N        -3.62823325759297   -2.05666856233703   -0.87746359236967
C        -2.21882433206049   -2.42981890648614   -0.81072686498295
C        -4.30536341753849   -1.89851057224817    0.40942838081980
H        -4.12453322531258   -2.72272673023531   -1.45565779595688
C        -1.47190653119783   -1.76854333469215   -1.97711373265318
C        -2.01119261375441   -3.95628359687095   -0.82711225980793
H        -1.82152175736601   -2.02795402380497    0.13208714467480
C        -4.02949991043236   -0.48603761416793    0.94956271099197
H        -3.93467645417620   -2.63693343183770    1.15406053273719
C        -5.80548314901237   -2.11250987110624    0.22858584131840
H        -1.75234153108377   -2.23350585787226   -2.92525024883155
H        -0.39535501294819   -1.87012375013784   -1.85082043523107
H        -1.72790597256732   -0.70890416611214   -2.02425736165687
H        -2.33908022840015   -4.36727601083830   -1.78587975240182
H        -2.58599542968310   -4.43281667151638   -0.02662075997497
H        -0.96139581879018   -4.20280508390373   -0.68876747372847
H        -2.96219626514185   -0.28725449913263    0.96231999795020
H        -4.41573821666681   -0.37902950867875    1.96266490273826
H        -4.50332416928072    0.25210015587048    0.30532960705058
H        -6.18295395244048   -1.43167269614415   -0.53622160211584
H        -6.32779271963358   -1.91394682242443    1.16549767581138
H        -6.01856666582077   -3.13901426112368   -0.07974263238165
22
 energy: -23.425860834936 gnorm: 0.056247813434 xtb: 6.4.1 (afa7bdf)
N        -3.61871372585936   -2.03431749851630   -0.87465730557555
C        -2.21475568916176   -2.42288479802041   -0.81504218004717
C        -4.30442178353570   -1.90138458280213    0.40872805725146
H        -4.13930445434962   -2.67699830130984   -1.53716858931680
C        -1.47556849380636   -1.78206161569401   -1.98305322272346
C        -2.00657280460437   -3.94102862156232   -0.80725582617809
H        -1.81003802435440   -2.02019549677883    0.11351104103050
C        -4.03225612267603   -0.50750927306736    0.95576888672153