21
 energy: -32.247021036425 gnorm: 0.072836976168 xtb: 6.4.1 (afa7bdf)
C        -3.29873389970000    1.45514541590000    0.01542621050000
C        -3.30323598600000    0.04877560250000   -0.01108735870000
C        -2.10009004830000   -0.65503726770000   -0.02990519570000
C        -0.88172912020000    0.02678340510000   -0.02349747760000
C        -0.84666874620000    1.43793120940000    0.00232385270000
C        -2.07317889160000    2.13431904790000    0.02227329160000
H        -2.08803241500000    3.21717883000000    0.04248210500000
H        -4.22916742420000   -0.51023710110000   -0.01709172660000
H        -2.11117965840000   -1.73734223580000   -0.05016330130000
H         0.01640681220000   -0.56982414420000   -0.03996191200000
C         0.43295301080000    2.21861505240000    0.00760239790000
C         1.65066857600000    1.65391941460000   -0.00490395790000
H         1.81382306110000    0.58559602210000   -0.01894176480000
H         2.53701294670000    2.28104905040000   -0.00061160050000
O         0.37400259340000    3.56681539570000    0.02479443460000
Li        1.91977631830000    4.56168219290000    0.02407388930000
O        -4.44188347380000    2.18935322510000    0.03430631950000
C        -5.72538746100000    1.68381458250000    0.01064474020000
H        -5.89209815680000    1.10578385910000   -0.92338271720000
H        -6.44750830260000    2.52528060460000    0.03932631460000
H        -5.90108266070000    1.03659912270000    0.89629214230000
21
 energy: -32.256535032789 gnorm: 0.036964102611 xtb: 6.4.1 (afa7bdf)
C        -3.28595697406044    1.46035498009999    0.01475279891787
C        -3.29729117648329    0.06458801509066   -0.01143435439964
C        -2.09576220594887   -0.62751417337211   -0.02961331856172
C        -0.88459065050707    0.04560686242928   -0.02338224163532
C        -0.84941118695958    1.44384266565648    0.00230955567995
C        -2.06348309702207    2.13213154589601    0.02174815172727
H        -2.06598695059842    3.21138139233817    0.04203487483257
H        -4.22568451605349   -0.48884807462159   -0.01757686937779
H        -2.10682219161024   -1.70868030082396   -0.04961700652607
H         0.01970783075718   -0.54120397258309   -0.03954358886852
C         0.42632355710520    2.21553462461808    0.00734469169346
C         1.63804241759606    1.63066370534256   -0.00507478230202
H         1.79358175751412    0.56653419698267   -0.01871077043697
H         2.52962272105054    2.25855119009871   -0.00069736124216
O         0.33884219428794    3.54510108826249    0.02457185176958
Li        1.80419452556284    4.52141024406967    0.02464096253595
O        -4.41359715297477    2.22655449108129    0.03491661168346
C        -5.69179650711715    1.67156485452871    0.01053389553844
H        -5.87931602512900    1.09366634412502   -0.90842383635393
H        -6.39886702612959    2.50738466075713    0.03863816994902
H        -5.88708226927988    1.02757694412384    0.88258125127658
21
 energy: -32.261332483047 gnorm: 0.014595429523 xtb: 6.4.1 (afa7bdf)
C        -3.27608762122563    1.46666653440283    0.01405134797140
C        -3.29600517818436    0.08025933776586   -0.01207391686642
C        -2.09412275074233   -0.60537813999943   -0.02982101779722
C        -0.88704940201545    0.05733082435376   -0.02355047676556
C        -0.84907243006320    1.44920886748379    0.00202385725823
C        -2.05391368059147    2.13305141632195    0.02114638673911
H        -2.04341469878052    3.21061062909069    0.04147585125064
H        -4.22644984735499   -0.46715902641416   -0.01853254375958
H        -2.10809606109571   -1.68630132658610   -0.04949969378834
H         0.02329433594219   -0.51938501090188   -0.03925012001143
C         0.42388838058632    2.21842266967480    0.00752234371454
C         1.62450915734953    1.60902638055945   -0.00488559683485
H         1.76893888337393    0.54912479832619   -0.01825972577678
H         2.52196573385747    2.23480978640939   -0.00067865453157
O         0.31406249061553    3.52833781210435    0.02429166479962
Li        1.64736759202311    4.46833220773807    0.02521281173791
O        -4.38823322669120    2.26843715469791    0.03529550073643
C        -5.65936874650157    1.66385318819750    0.01076929701323
H        -5.83482655517800    1.08291065846482   -0.89885694107062
H        -6.36124494634322    2.49292379289251    0.03734718473977
H        -5.84147435498041    1.02111872951770    0.87627112714147
21
 energy: -32.261976307731 gnorm: 0.009889916490 xtb: 6.4.1 (afa7bdf)
C        -3.27118028280488    1.47146748919117    0.01365927350818
C        -3.29860086109133    0.08465379069365   -0.01264018065351
C        -2.09940541267911   -0.60948850870839   -0.03041540509810
C        -0.88843651446798    0.04649435448294   -0.02395439232142
C        -0.84562570547843    1.44034234505875    0.00168792696749
C        -2.04652390895397    2.13334643777209    0.02077482246458
H        -2.03076240596060    3.21159888491391    0.04101793643611
H        -4.23068034524250   -0.45915416286661   -0.01942477852904
H        -2.11994887454820   -1.69022153950933   -0.05023357799803
H         0.02047484307919   -0.53141269763018   -0.03961175095947
C         0.42535821692616    2.21143952120962    0.00727326078597
C         1.62447772897976    1.60382433334141   -0.00463779774368
H         1.76748768356712    0.54348024119020   -0.01760925683104
H         2.52076541303988    2.22899940254602   -0.00006412139901
O         0.30635677849011    3.52193859584535    0.02428631330209
Li        1.58130519248147    4.49722927489110    0.02621681655778
O        -4.37946611399226    2.27795512696588    0.03464463833811
C        -5.64864472133312    1.66943080021167    0.01138469947460
H        -5.80825241093606    1.08447143053410   -0.89968469108616
H        -6.35954572804496    2.49301741800894    0.03594392977704
H        -5.81448549703030    1.02678874595769    0.88138502090748
21
 energy: -32.262844576837 gnorm: 0.007862223032 xtb: 6.4.1 (afa7bdf)
C        -3.26282367272727    1.47899196218351    0.01262439875828
C        -3.30394128658516    0.09066240300558   -0.01393909182144
C        -2.11127163788585   -0.62076821186927   -0.03181167620523
C        -0.89207056622205    0.02287418118671   -0.02496173350090
C        -0.83832863107588    1.41981552114379    0.00088750523289
C        -2.03229926410677    2.13026185223064    0.01987602869543
H        -2.00672035155584    3.20915199366504    0.04006468140242
H        -4.23863809908312   -0.44739192589046   -0.02113590735786
H        -2.14564398683220   -1.70112993192255   -0.05190533941165
H         0.01284432827532   -0.56004358083373   -0.04039231180203
C         0.43193444329540    2.19121095119461    0.00733617763817
C         1.63046714700922    1.59118145234187   -0.00371413307993
H         1.77007860279477    0.52919887248903   -0.01644410872487
H         2.52408201969857    2.21372242703830    0.00112108626187
O         0.30518965711441    3.50640550436415    0.02399077585907
Li        1.46388388034952    4.60109687425980    0.02859504281410
O        -4.36522194431689    2.29004912190775    0.03289793234282
C        -5.63200574561202    1.68249959782507    0.01282820503466
H        -5.77039897459163    1.09057378709368   -0.89991261616762
H        -6.35846290371388    2.49600787445248    0.03293349607566
H        -5.77598594022868    1.04183055823396    0.89106027385616
21
 energy: -32.263867820726 gnorm: 0.016086144451 xtb: 6.4.1 (afa7bdf)
C        -3.25134122550110    1.48663284441768    0.01060122402969
C        -3.30889783258758    0.09793820345924   -0.01595148773784
C        -2.12474833131223   -0.63200748642506   -0.03378062029482
C        -0.89653689741222   -0.00401082216676   -0.02639153642564
C        -0.82752000274433    1.39461454218729   -0.00034598232334
C        -2.01298661247978    2.12266646158683    0.01830550232642
H        -1.97440410349471    3.20130725178026    0.03851375306518
H        -4.24632670729945   -0.43396539938586   -0.02333007841047
H        -2.17697325154075   -1.71179692008716   -0.05414991509351
H         0.00349830634736   -0.59398804053054   -0.04144628325459
C         0.44661884464234    2.15952068473518    0.00693188341444
C         1.64290290046958    1.56248662266763   -0.00239612709077
H         1.77198919754068    0.49817900943492   -0.01450960489671
H         2.53612559641839    2.17660931676843    0.00316888782938
O         0.32376347829247    3.48021637564593    0.02326664563702
Li        1.27589191105973    4.77747129708160    0.03250313972024
O        -4.34507189279309    2.30679158799544    0.02999375430787
C        -5.61000746810667    1.69974293891755    0.01500021161989
H        -5.73411821409018    1.10027074823133   -0.89606264159417
H        -6.34879500098454    2.50324098023118    0.02924913031432
H        -5.73839562042395    1.06428108755484    0.90082883075740
21
 energy: -32.264653119778 gnorm: 0.018633456808 xtb: 6.4.1 (afa7bdf)
C        -3.24293407514187    1.49002142030188    0.00842557367364
C        -3.30846072166662    0.10269325429346   -0.01773507364917
C        -2.12890978102660   -0.63374239973201   -0.03541206005681
C        -0.89755143351742   -0.01385562734358   -0.02770800663503
C        -0.81912355817503    1.38409409192151   -0.00153883897348
C        -2.00041956908599    2.11668996237747    0.01657527764020
H        -1.95494175244240    3.19429616470231    0.03695745782303
H        -4.24648122558603   -0.42748675932005   -0.02494125206674
H        -2.19122324327285   -1.71304581978368   -0.05584152759116
H        -0.00017427682591   -0.60854693344807   -0.04231123469541
C         0.46164847176143    2.13888414481603    0.00697990193546
C         1.65337746970915    1.53241585612191   -0.00077811905562
H         1.76704645671091    0.46612521410266   -0.01260259484749
H         2.55215142783578    2.13182285547705    0.00518104508615
O         0.35856120145776    3.46391894166529    0.02239246211643
Li        1.11096300445834    4.90586378532949    0.03527173625137
O        -4.33069624739066    2.31839651698973    0.02715026111950
C        -5.59568450414945    1.71020007935365    0.01689264849415
H        -5.72237611388272    1.10655675837345   -0.88933155505759
H        -6.33532814382748    2.51025414823981    0.02717916662390
H        -5.72477631194239    1.08064562966164    0.90519341776465
21
 energy: -32.265965588499 gnorm: 0.010128508117 xtb: 6.4.1 (afa7bdf)
C        -3.24114121654959    1.48730610268755    0.00667402275340
C        -3.30053474246327    0.10290025897485   -0.01879582443875
C        -2.11906071191061   -0.62212670392424   -0.03627111491034
C        -0.89321443781186    0.00277864868670   -0.02851852915663
C        -0.81611962695055    1.39718895594637   -0.00225810655183
C        -2.00057981039589    2.11533907578197    0.01525507228351
H        -1.95881676424129    3.19141328718731    0.03588650701404
H        -4.23626402110443   -0.43209057078469   -0.02541070378301
H        -2.17797573037865   -1.70129814942876   -0.05660307373262
H         0.00464873822973   -0.59327168349559   -0.04295696623207
C         0.47262324941193    2.13989635576571    0.00710523434595
C         1.65848883722303    1.51096556336410    0.00060111583591
H         1.75479667339470    0.44368805895692   -0.01099406360533
H         2.56948069720552    2.09036295238170    0.00704174172218
O         0.40697034242464    3.46762428172445    0.02177850591812
Li        1.02619625738524    4.92506378306504    0.03569172424109
O        -4.32923772925687    2.31828993654891    0.02495945177515
C        -5.59655040192571    1.70828813747033    0.01799574714764
H        -5.74837152316777    1.10501557971909   -0.88011918132007
H        -6.32194212001282    2.51471855139622    0.02722925394827
H        -5.74872888510553    1.08414886207602    0.90170787264537
21
 energy: -32.266557490311 gnorm: 0.012444336492 xtb: 6.4.1 (afa7bdf)
C        -3.23469816934853    1.48759509791068    0.00534517401286
C        -3.29364488926220    0.10329732520743   -0.01985294780514
C        -2.11125439553242   -0.61912831056257   -0.03756597163824
C        -0.88603217063497    0.00605796923831   -0.02983034072471
C        -0.80695625118321    1.39925186242876   -0.00313277571337
C        -1.99308847797633    2.11557270935327    0.01389101709569
H        -1.95395677184229    3.19342169812847    0.03442231265079
H        -4.23109220947638   -0.43033440855827   -0.02620343744072
H        -2.16789068396164   -1.69826710623109   -0.05803601932683
H         0.00904811300853   -0.59420106638548   -0.04491418071398
C         0.48770402630856    2.12620448585883    0.00665601942918
C         1.66804884196329    1.48529553113350    0.00175173481494
H         1.75553926934620    0.41795228200169   -0.00867426287701
H         2.58522032447528    2.05282900568540    0.00954024001945
O         0.43894264442034    3.45462291622830    0.02123122512519
Li        0.88643395241046    4.98106644393660    0.03719123490295
O        -4.32419472599087    2.31908640293922    0.02263396152302
C        -5.59555900101611    1.71649045451427    0.01938008553094
H        -5.75994202799949    1.10855943627390   -0.87438174351417
H        -6.30976828615071    2.53461477221633    0.02569587711324
H        -5.75819203755758    1.09621378278237    0.90485148343590
21
 energy: -32.267157350934 gnorm: 0.007709975761 xtb: 6.4.1 (afa7bdf)
C        -3.22796454425270    1.48595494182346    0.00496965744143
C        -3.28351198998784    0.10003729471703   -0.02013228559302
C        -2.09752120182446   -0.61694464049436   -0.03854953038705
C        -0.87410654252134    0.01385391731320   -0.03127434173962
C        -0.79677647033216    1.40686444991724   -0.00384319897819
C        -1.98769644200670    2.12043562019570    0.01300572906632
H        -1.95832471891403    3.20233950251089    0.03329456088511
H        -4.22489622100649   -0.42929565679448   -0.02594759958335
H        -2.14324930859546   -1.69667242742523   -0.05920613695210
H         0.01769631798451   -0.59008659062297   -0.04769474558076
C         0.50114336144645    2.11873173535297    0.00662029543850
C         1.67643719374248    1.46966104616449    0.00306479921456
H         1.76523461516215    0.40384440422219   -0.00606825736922
H         2.59669606201032    2.03272910387636    0.01171940576781
O         0.45829427563396    3.44452164472248    0.02047008958508
Li        0.76732401809604    4.96968530040037    0.03713433143690
O        -4.32388896182743    2.31178743585608    0.02149246202421
C        -5.60205199634754    1.72471340162834    0.02016033787515
H        -5.78123608862140    1.11397613197230   -0.87212025352873
H        -6.29912324125594    2.56343061576134    0.02483782229672
H        -5.77781104258248    1.10663405300251    0.90806554458024
21
 energy: -32.267428402855 gnorm: 0.011560403160 xtb: 6.4.1 (afa7bdf)
C        -3.21601723619232    1.48641221593858    0.00396769482092
C        -3.27930928428337    0.09975658272534   -0.02072362940150
C        -2.09645911320809   -0.62319175857263   -0.03971284151142
C        -0.87040635320209    0.00468639820840   -0.03294507823144
C        -0.78596493927152    1.39882247369129   -0.00520946153616
C        -1.97470921232400    2.11818611534985    0.01179248210127
H        -1.94706111017277    3.20139922825565    0.03205823123807
H        -4.22509497780598   -0.42118535572859   -0.02547398001564
H        -2.14241151815620   -1.70315136116328   -0.06032626256145
H         0.01821703650952   -0.60283503613926   -0.04975829253875
C         0.51493405849227    2.10514001375513    0.00652805244491
C         1.68724031289283    1.45365049289693    0.00530417453442
H         1.77633124933030    0.38742565746829   -0.00270790657723
H         2.60738149353079    2.01466728587701    0.01404431601150
O         0.47290450300162    3.43125615695334    0.01868294466717
Li        0.59711361970533    5.01171237216237    0.03695258041760
O        -4.31025296697181    2.31520166906414    0.02086110629370
C        -5.59263853436086    1.73956980024327    0.02121872511296
H        -5.77477276734102    1.13092350651838   -0.87192130912021
H        -6.28450613973996    2.58296989825542    0.02567754692220
H        -5.76985104643276    1.12478492834029    0.91168959282906
21
 energy: -32.267749183885 gnorm: 0.005102884641 xtb: 6.4.1 (afa7bdf)
C        -3.21226655510398    1.48628715671286    0.00441091624053
C        -3.28136592619021    0.09938515561344   -0.02022896854479
C        -2.10161544474301   -0.62960263531141   -0.03954518365768
C        -0.87315735653795   -0.00455423447451   -0.03312761393220
C        -0.78530158881663    1.39061575778837   -0.00560543718709
C        -1.97082904545676    2.11509857430846    0.01197742638298
H        -1.94180651478825    3.19761325127853    0.03233023794938
H        -4.22866831715550   -0.41687296688863   -0.02451986472047
H        -2.15005819464361   -1.70955836926897   -0.06006573874002
H         0.01605759182902   -0.61085992347296   -0.04997742519980
C         0.51328139607421    2.10628511200358    0.00571656357490
C         1.68835717566658    1.46209503096466    0.00590688556599
H         1.78383863805828    0.39527698459038   -0.00116932381212
H         2.60403915171487    2.03081641168185    0.01493033916162
O         0.45917777805395    3.43246124705531    0.01743267491365
Li        0.57109080918104    4.99465450723913    0.03504237702273
O        -4.30295248960086    2.31843704140546    0.02244216330105
C        -5.58533456042513    1.74536223623358    0.02095880051556
H        -5.76020859945520    1.14184738581285   -0.87602030757182
H        -6.28212355986347    2.58261163211292    0.02846334686737
H        -5.75548731379744    1.12880192871501    0.91064681777018
21
 energy: -32.267936261034 gnorm: 0.004319921193 xtb: 6.4.1 (afa7bdf)
C        -3.20496859846845    1.48621345070995    0.00477426938546
C        -3.28124120199764    0.09965431302008   -0.01996822216712
C        -2.10501590514648   -0.63559675577871   -0.03994634939949
C        -0.87314369209198   -0.01564725095939   -0.03399179002614
C        -0.78009731691983    1.37928450986356   -0.00641166444275
C        -1.96193924347457    2.10911325191935    0.01172760924248
H        -1.93064003354534    3.19118888230476    0.03239639045581
H        -4.23077387960709   -0.41103486836989   -0.02408776926527
H        -2.15779587459857   -1.71527247918945   -0.06058493619993
H         0.01627694012935   -0.62207125888627   -0.05134148211905
C         0.51793776758992    2.10146506860675    0.00498519380553
C         1.69576009780949    1.46314083501264    0.00788706419662
H         1.79576967001284    0.39597362737110    0.00226187474982
H         2.60802362639954    2.03769856603690    0.01755689242323
O         0.45486622177004    3.42776082530483    0.01470333067370
Li        0.46106925647133    4.98997651899886    0.03200723741378
O        -4.28939987429493    2.32557849141876    0.02374303647929
C        -5.57362015199685    1.75802296894014    0.02126721755653
H        -5.74530532875560    1.15787385014602   -0.87851111837333
H        -6.27134194403031    2.59399342375947    0.03213097091013
H        -5.73975346125492    1.13888531387045    0.90940093060068
21
 energy: -32.268026316596 gnorm: 0.002600739011 xtb: 6.4.1 (afa7bdf)
C        -3.20181867064185    1.48606821327555    0.00517948576276
C        -3.27991653195546    0.10014573619469   -0.02006750401755
C        -2.10459543372192   -0.63637453375061   -0.04034346375953
C        -0.87102111355094   -0.01996556835287   -0.03447935967081
C        -0.77613936720723    1.37391182744898   -0.00660045955909
C        -1.95690686458308    2.10450331905138    0.01194959883792
H        -1.92324742100179    3.18657065868099    0.03294945283053
H        -4.22946579746953   -0.41051888399291   -0.02448004525786
H        -2.16144634651679   -1.71566573249883   -0.06119703253580
H         0.01853740133917   -0.62702407675209   -0.05228186411845
C         0.52184014348931    2.09820963435982    0.00468342273017
C         1.70182510089553    1.46265751624377    0.00959309959771
H         1.80239541827405    0.39564065934610    0.00541737462986
H         2.61290809775650    2.03913039343438    0.01953206469106
O         0.45645372827737    3.42418150839182    0.01239722529495
Li        0.38203759499782    4.98202042618774    0.02844589368941
O        -4.28142829975127    2.33094170670534    0.02474545564063
C        -5.56711941130871    1.76590747672780    0.02153637131489
H        -5.74096355534681    1.16785768835581   -0.87960542388264
H        -6.26270342148025    2.60404537328291    0.03514753686621
H        -5.73455817649417    1.14395794176013    0.90747685681559
21
 energy: -32.268065078809 gnorm: 0.001412963611 xtb: 6.4.1 (afa7bdf)
C        -3.19984640768826    1.48619607029159    0.00566500202681
C        -3.27762066654916    0.10057665834309   -0.02042398995414
C        -2.10202412143115   -0.63552521389997   -0.04084017160523
C        -0.86778371929314   -0.02116826515371   -0.03473570501063
C        -0.77232022037120    1.37229182975268   -0.00633047919717
C        -1.95340602175093    2.10190609998417    0.01267189026055
H        -1.91819912690674    3.18449263700071    0.03419288894726
H        -4.22642470666348   -0.41221378695952   -0.02539937917623
H        -2.16201821129072   -1.71457190321765   -0.06212269636789
H         0.02111392681947   -0.62950199161926   -0.05292143690735
C         0.52563197157931    2.09600796028790    0.00466274264939
C         1.70641729466509    1.46078899582286    0.01120792895558
H         1.80540705178432    0.39377940169061    0.00910564805725
H         2.61749602349832    2.03665413658029    0.02079421276599
O         0.46110009397854    3.42160971971691    0.01017375735166
Li        0.31919051754090    4.97417622736218    0.02398385018883
O        -4.27658187786197    2.33402691644338    0.02586167706045
C        -5.56371097663054    1.77128392633502    0.02168491604696
H        -5.74133921871500    1.17613628645295   -0.88071360995617
H        -6.25611934211062    2.61218079077888    0.03798017596729
H        -5.73429518860314    1.14707478810678    0.90550146379674
21
 energy: -32.268070834080 gnorm: 0.001308039418 xtb: 6.4.1 (afa7bdf)
C        -3.19926252775196    1.48665635581831    0.00641569143867
C        -3.27581447559727    0.10108870575902   -0.02088784516607
C        -2.09938627812495   -0.63411532096606   -0.04142516266572
C        -0.86533818053388   -0.02019321365155   -0.03472161712516
C        -0.77022092459141    1.37354239619437   -0.00557697760098
C        -1.95217108405634    2.10161637773410    0.01396954339047
H        -1.91641179424676    3.18478237547978    0.03637469776134
H        -4.22359886679719   -0.41428070451530   -0.02683100439663
H        -2.16088041288634   -1.71306450934709   -0.06345989324478
H         0.02272936168601   -0.62955763959352   -0.05326971406881
C         0.52750153207731    2.09604508470629    0.00492169576485
C         1.70799465223660    1.45963447978056    0.01274436349686
H         1.80458282365770    0.39249261924379    0.01299498472215
H         2.61985666501173    2.03365270334997    0.02131790452877
O         0.46473686568353    3.42150350206506    0.00792748290604
Li        0.29085514444272    4.96552657347053    0.01873398484342
O        -4.27531539091736    2.33473511992091    0.02722558572574
C        -5.56317406515812    1.77314510485057    0.02165100424950
H        -5.74265624207162    1.18062577230360   -0.88197681389345
H        -6.25375196596072    2.61551606349917    0.04027434878461
H        -5.73560776210176    1.14684943799740    0.90359642644914
21
 energy: -32.268067606889 gnorm: 0.001603174171 xtb: 6.4.1 (afa7bdf)
C        -3.19703972104068    1.48726443463853    0.00687125992948
C        -3.27441979230709    0.10161030685952   -0.02136485464160
C        -2.09812271151271   -0.63424324340182   -0.04216054137674
C        -0.86393609635286   -0.02060275647184   -0.03502691010159
C        -0.76780402978927    1.37359839228717   -0.00515982668092
C        -1.94975998239438    2.10190285449310    0.01493602248103
H        -1.91438232227115    3.18551981762301    0.03809019736373
H        -4.22247819653207   -0.41332692619407   -0.02784876419406
H        -2.15980266280521   -1.71321715057606   -0.06485499517353
H         0.02324377738897   -0.63089144064304   -0.05399049437247
C         0.53040801037425    2.09462774039596    0.00492107712860
C         1.70978914384898    1.45650256888907    0.01420140538789
H         1.80481377462006    0.38914789883578    0.01655178520568
H         2.62245987592451    2.02868461334971    0.02229609931715
O         0.46891255752127    3.42016089248056    0.00618053385516
Li        0.25472560363744    4.96655187188924    0.01441349640581
O        -4.27306583102694    2.33535016861003    0.02820290126666
C        -5.56165907751645    1.77557788244235    0.02180618136957
H        -5.74145249433125    1.18493160202346   -0.88280256004635
H        -6.25130428682515    2.61851059733578    0.04165142900746
H        -5.73445846461035    1.14854115923345    0.90308524376902
21
 energy: -32.268075141203 gnorm: 0.000231958803 xtb: 6.4.1 (afa7bdf)
C        -3.19840036005660    1.48722078080820    0.00677398024573
C        -3.27585022681486    0.10159636621907   -0.02125754492122
C        -2.09971293564750   -0.63430784735915   -0.04206251580350
C        -0.86574565378418   -0.01999635720250   -0.03502864622671
C        -0.77001125831304    1.37406206780192   -0.00527017561286
C        -1.95168288896160    2.10278137313661    0.01476400274131
H        -1.91665305348966    3.18600188762248    0.03783505669824
H        -4.22410564704005   -0.41254584083006   -0.02757445990056
H        -2.16025823415637   -1.71332360293259   -0.06466053898207
H         0.02208462735324   -0.62943455827099   -0.05391910936709
C         0.52818956651257    2.09593797596748    0.00494651989264
C         1.70763544713249    1.45819607809900    0.01383720816744
H         1.80351828247189    0.39093847558689    0.01544357031994
H         2.62020496444779    2.03102116866799    0.02205874100112
O         0.46590755191568    3.42157383965691    0.00674352965967
Li        0.28752146854389    4.96820618607931    0.01566505730207
O        -4.27535138329508    2.33447856209622    0.02791273528237
C        -5.56300357621528    1.77273501554258    0.02180301525591
H        -5.74087215501365    1.18062534882405   -0.88231357936039
H        -6.25448303757115    2.61418971120892    0.04052724311876
H        -5.73426442401863    1.14624465337756    0.90377459638915
21
 energy: -32.268075699668 gnorm: 0.000119238971 xtb: 6.4.1 (afa7bdf)
C        -3.19833807720901    1.48745500291479    0.00712184936038
C        -3.27578084423221    0.10189228456493   -0.02149040487587
C        -2.09964468057165   -0.63394109285668   -0.04255402532694
C        -0.86566990684587   -0.01970570645824   -0.03536207360325
C        -0.76987401542452    1.37425015594840   -0.00510550830379
C        -1.95154616591154    2.10292595084601    0.01533549945733
H        -1.91649346607380    3.18614997812921    0.03890228996835
H        -4.22399790904740   -0.41232174671867   -0.02810116033938
H        -2.16027043604727   -1.71293401071671   -0.06555784970189
H         0.02216086401624   -0.62918904223287   -0.05459641358237
C         0.52851714291739    2.09590159066273    0.00503181733788
C         1.70784592077613    1.45788879641918    0.01488852573264
H         1.80330386901837    0.39064572084607    0.01756903209043
H         2.62067102893972    2.03028046419349    0.02282116363503
O         0.46652725592970    3.42148514552000    0.00554290583425
Li        0.28471315632226    4.96752365244343    0.01306624211671
O        -4.27530438373791    2.33477194702020    0.02855622787467
C        -5.56284401398073    1.77263581583744    0.02193972867142
H        -5.74059219791599    1.18091535257710   -0.88250848301571
H        -6.25445115235974    2.61403049288821    0.04102270298693
H        -5.73426491456224    1.14554053227188    0.90347661958315
