      -----------------------------------------------------------      
     |                   =====================                   |     
     |                           x T B                           |     
     |                   =====================                   |     
     |                         S. Grimme                         |     
     |          Mulliken Center for Theoretical Chemistry        |     
     |                    University of Bonn                     |     
      -----------------------------------------------------------      

   * xtb version 6.4.1 (afa7bdf) compiled by 'ehlert@majestix' on 2021-06-10

   xtb is free software: you can redistribute it and/or modify it under
   the terms of the GNU Lesser General Public License as published by
   the Free Software Foundation, either version 3 of the License, or
   (at your option) any later version.
   
   xtb is distributed in the hope that it will be useful,
   but WITHOUT ANY WARRANTY; without even the implied warranty of
   MERCHANTABILITY or FITNESS FOR A PARTICULAR PURPOSE.  See the
   GNU Lesser General Public License for more details.
   
   Cite this work as:
   * C. Bannwarth, E. Caldeweyher, S. Ehlert, A. Hansen, P. Pracht,
     J. Seibert, S. Spicher, S. Grimme, WIREs Comput. Mol. Sci., 2020, 11,
     e01493. DOI: 10.1002/wcms.1493
   
   for GFN2-xTB:
   * C. Bannwarth, S. Ehlert and S. Grimme., J. Chem. Theory Comput., 2019,
     15, 1652-1671. DOI: 10.1021/acs.jctc.8b01176
   for GFN1-xTB:
   * S. Grimme, C. Bannwarth, P. Shushkov, J. Chem. Theory Comput., 2017,
     13, 1989-2009. DOI: 10.1021/acs.jctc.7b00118
   for GFN0-xTB:
   * P. Pracht, E. Caldeweyher, S. Ehlert, S. Grimme, ChemRxiv, 2019, preprint.
     DOI: 10.26434/chemrxiv.8326202.v1
   for GFN-FF:
   * S. Spicher and S. Grimme, Angew. Chem. Int. Ed., 2020, 59, 15665-15673.
     DOI: 10.1002/anie.202004239
   
   for DFT-D4:
   * E. Caldeweyher, C. Bannwarth and S. Grimme, J. Chem. Phys., 2017,
     147, 034112. DOI: 10.1063/1.4993215
   * E. Caldeweyher, S. Ehlert, A. Hansen, H. Neugebauer, S. Spicher,
     C. Bannwarth and S. Grimme, J. Chem. Phys., 2019, 150, 154122.
     DOI: 10.1063/1.5090222
   * E. Caldeweyher, J.-M. Mewes, S. Ehlert and S. Grimme, Phys. Chem. Chem. Phys.
     2020, 22, 8499-8512. DOI: 10.1039/D0CP00502A
   
   for sTDA-xTB:
   * S. Grimme and C. Bannwarth, J. Chem. Phys., 2016, 145, 054103.
     DOI: 10.1063/1.4959605
   
   in the mass-spec context:
   * V. Asgeirsson, C. Bauer and S. Grimme, Chem. Sci., 2017, 8, 4879.
     DOI: 10.1039/c7sc00601b
   * J. Koopman and S. Grimme, ACS Omega 2019, 4, 12, 15120-15133.
     DOI: 10.1021/acsomega.9b02011
   
   for metadynamics refer to:
   * S. Grimme, J. Chem. Theory Comput., 2019, 155, 2847-2862
     DOI: 10.1021/acs.jctc.9b00143
   
   for SPH calculations refer to:
   * S. Spicher and S. Grimme, J. Chem. Theory Comput., 2021, 17, 1701-1714
     DOI: 10.1021/acs.jctc.0c01306
   
   with help from (in alphabetical order)
   P. Atkinson, C. Bannwarth, F. Bohle, G. Brandenburg, E. Caldeweyher
   M. Checinski, S. Dohm, S. Ehlert, S. Ehrlich, I. Gerasimov, J. Koopman
   C. Lavigne, S. Lehtola, F. März, M. Müller, F. Musil, H. Neugebauer
   J. Pisarek, C. Plett, P. Pracht, J. Seibert, P. Shushkov, S. Spicher
   M. Stahn, M. Steiner, T. Strunk, J. Stückrath, T. Rose, and J. Unsleber
   
 * started run on 2022/04/13 at 10:31:34.123     

           -------------------------------------------------
          |                Calculation Setup                |
           -------------------------------------------------

          program call               : xtb Aldol_Cry.xyz --opt --alpb thf
          hostname                   : clu
          coordinate file            : Aldol_Cry.xyz
          omp threads                :                     4
          number of atoms            :                    39
          number of electrons        :                   118
          charge                     :                     0
          spin                       :                   0.0
          first test random number   :      0.42332225944027

   ID    Z sym.   atoms
    1    6 C      1-7, 12-19, 28, 33, 36
    2    1 H      8-11, 20-24, 29-31, 37-39
    3    8 O      25-27, 34, 35
    4    3 Li     32

           -------------------------------------------------
          |                 G F N 2 - x T B                 |
           -------------------------------------------------

        Reference                      10.1021/acs.jctc.8b01176
      * Hamiltonian:
        H0-scaling (s, p, d)           1.850000    2.230000    2.230000
        zeta-weighting                 0.500000
      * Dispersion:
        s8                             2.700000
        a1                             0.520000
        a2                             5.000000
        s9                             5.000000
      * Repulsion:
        kExp                           1.500000    1.000000
        rExp                           1.000000
      * Coulomb:
        alpha                          2.000000
        third order                    shell-resolved
        anisotropic                    true
        a3                             3.000000
        a5                             4.000000
        cn-shift                       1.200000
        cn-exp                         4.000000
        max-rad                        5.000000

      * Solvation model:               ALPB
        Solvent                        thf
        Parameter file                 internal GFN2-xTB/ALPB
        Dielectric constant                7.6000E+00
        Reference state                gsolv [1 M gas/solution]
        Free energy shift                  5.3248E-03 Eh       3.3414E+00 kcal/mol
        Temperature                        2.9815E+02 K
        Density                            8.8300E-01 kg/L
        Solvent mass                       7.2106E+01 g/mol
        Interaction kernel             P16
        Born radius scaling (c1)           1.7311E+00
        Born radii integrator          GBOBC
        Born offset                        0.0000E+00 a0       0.0000E+00 AA
        H-bond correction              true
        Ion screening                  false
        Surface tension                    1.0000E-05 Eh       1.5569E+01 dyn/cm
        Grid points                               230 per atom

          ...................................................
          :                      SETUP                      :
          :.................................................:
          :  # basis functions                 111          :
          :  # atomic orbitals                 111          :
          :  # shells                           63          :
          :  # electrons                       118          :
          :  max. iterations                   250          :
          :  Hamiltonian                  GFN2-xTB          :
          :  restarted?                      false          :
          :  GBSA solvation                   true          :
          :  PC potential                    false          :
          :  electronic temp.          300.0000000     K    :
          :  accuracy                    1.0000000          :
          :  -> integral cutoff          0.2500000E+02      :
          :  -> integral neglect         0.1000000E-07      :
          :  -> SCF convergence          0.1000000E-05 Eh   :
          :  -> wf. convergence          0.1000000E-03 e    :
          :  Broyden damping             0.4000000          :
          ...................................................

 iter      E             dE          RMSdq      gap      omega  full diag
   1    -67.5825096 -0.675825E+02  0.596E+00    2.22       0.0  T
   2    -67.6993457 -0.116836E+00  0.318E+00    1.95       1.0  T
   3    -67.6928026  0.654310E-02  0.140E+00    2.04       1.0  T
   4    -67.7106235 -0.178209E-01  0.388E-01    1.84       1.0  T
   5    -67.7123152 -0.169167E-02  0.197E-01    1.96       1.0  T
   6    -67.7123644 -0.492489E-04  0.111E-01    1.95       1.0  T
   7    -67.7124259 -0.614380E-04  0.208E-02    1.94       1.0  T
   8    -67.7124368 -0.109044E-04  0.754E-03    1.95       2.1  T
   9    -67.7124372 -0.423378E-06  0.465E-03    1.95       3.4  T
  10    -67.7124373 -0.102132E-06  0.235E-03    1.95       6.8  T
  11    -67.7124373 -0.316553E-07  0.872E-04    1.95      18.4  T
  12    -67.7124374 -0.146679E-07  0.314E-04    1.95      51.1  T

   *** convergence criteria satisfied after 12 iterations ***

         #    Occupation            Energy/Eh            Energy/eV
      -------------------------------------------------------------
         1        2.0000           -0.7455460             -20.2873
       ...           ...                  ...                  ...
        53        2.0000           -0.4204596             -11.4413
        54        2.0000           -0.4189302             -11.3997
        55        2.0000           -0.4016677             -10.9299
        56        2.0000           -0.4010844             -10.9141
        57        2.0000           -0.3762620             -10.2386
        58        2.0000           -0.3709999             -10.0954
        59        2.0000           -0.3690755             -10.0431 (HOMO)
        60                         -0.2974609              -8.0943 (LUMO)
        61                         -0.2619764              -7.1287
        62                         -0.2426408              -6.6026
        63                         -0.2279205              -6.2020
        64                         -0.2249854              -6.1222
       ...                                ...                  ...
       111                          0.6810647              18.5327
      -------------------------------------------------------------
                  HL-Gap            0.0716147 Eh            1.9487 eV
             Fermi-level           -0.3332682 Eh           -9.0687 eV

 SCC (total)                   0 d,  0 h,  0 min,  0.120 sec
 SCC setup                      ...        0 min,  0.002 sec (  1.260%)
 Dispersion                     ...        0 min,  0.001 sec (  1.027%)
 classical contributions        ...        0 min,  0.000 sec (  0.089%)
 integral evaluation            ...        0 min,  0.007 sec (  6.263%)
 iterations                     ...        0 min,  0.092 sec ( 77.040%)
 molecular gradient             ...        0 min,  0.016 sec ( 13.642%)
 printout                       ...        0 min,  0.001 sec (  0.610%)

         :::::::::::::::::::::::::::::::::::::::::::::::::::::
         ::                     SUMMARY                     ::
         :::::::::::::::::::::::::::::::::::::::::::::::::::::
         :: total energy             -66.867922611564 Eh    ::
         :: total w/o Gsasa/hb       -66.831238675901 Eh    ::
         :: gradient norm              0.162470911227 Eh/a0 ::
         :: HOMO-LUMO gap              1.948734220240 eV    ::
         ::.................................................::
         :: SCC energy               -67.712437359678 Eh    ::
         :: -> isotropic ES            0.169669091251 Eh    ::
         :: -> anisotropic ES          0.007230807978 Eh    ::
         :: -> anisotropic XC          0.017406961808 Eh    ::
         :: -> dispersion             -0.038603878099 Eh    ::
         :: -> Gsolv                  -0.051197838107 Eh    ::
         ::    -> Gelec               -0.014513902445 Eh    ::
         ::    -> Gsasa               -0.040256048663 Eh    ::
         ::    -> Ghb                 -0.001752702444 Eh    ::
         ::    -> Gshift               0.005324815444 Eh    ::
         :: repulsion energy           0.844944959592 Eh    ::
         :: add. restraining           0.000000000000 Eh    ::
         :: total charge              -0.000000000000 e     ::
         :::::::::::::::::::::::::::::::::::::::::::::::::::::

      ----------------------------------------------------------- 
     |                   =====================                   |
     |                        A N C O P T                        |
     |                   =====================                   |
     |               Approximate Normal Coordinate               |
     |                Rational Function Optimizer                |
      ----------------------------------------------------------- 

          ...................................................
          :                      SETUP                      :
          :.................................................:
          :   optimization level            normal          :
          :   max. optcycles                   200          :
          :   ANC micro-cycles                  20          :
          :   degrees of freedom               111          :
          :.................................................:
          :   RF solver                   davidson          :
          :   write xtbopt.log                true          :
          :   linear?                        false          :
          :   energy convergence         0.5000000E-05 Eh   :
          :   grad. convergence          0.1000000E-02 Eh/α :
          :   maximium RF displ.         1.0000000          :
          :   Hlow (freq-cutoff)         0.1000000E-01      :
          :   Hmax (freq-cutoff)         5.0000000          :
          :   S6 in model hess.         20.0000000          :
          ...................................................

generating ANC from model Hessian ...
Using Lindh-Hessian (1995)
 Shifting diagonal of input Hessian by   9.792065356095224E-003
 Lowest  eigenvalues of input Hessian
    0.000000    0.000000    0.000000    0.000000    0.000000    0.000000
    0.010000    0.010168    0.010271    0.010714    0.011654    0.011912
    0.012662    0.013461    0.013618    0.014950    0.015080    0.016642
 Highest eigenvalues
    1.901344    1.963556    1.990229    2.065389    2.138378    2.259096
 

........................................................................
.............................. CYCLE    1 ..............................
........................................................................
   1    -67.7124374 -0.677124E+02  0.136E-04    1.95       0.0  T
   2    -67.7124374 -0.125482E-09  0.878E-05    1.95     182.5  T
   3    -67.7124374 -0.398188E-10  0.596E-05    1.95     268.8  T
     SCC iter.                  ...        0 min,  0.025 sec
     gradient                   ...        0 min,  0.016 sec
 * total energy  :   -66.8679226 Eh     change       -0.5710064E-09 Eh
   gradient norm :     0.1624684 Eh/α   predicted     0.0000000E+00 (-100.00%)
   displ. norm   :     0.3775934 α      lambda       -0.2949902E-01
   maximum displ.:     0.1951471 α      in ANC's #31, #14, #15, ...

........................................................................
.............................. CYCLE    2 ..............................
........................................................................
   1    -67.7587285 -0.677587E+02  0.476E-01    2.00       0.0  T
   2    -67.7607477 -0.201923E-02  0.265E-01    2.09       1.0  T
   3    -67.7611696 -0.421828E-03  0.156E-01    2.07       1.0  T
   4    -67.7613776 -0.208030E-03  0.527E-02    2.08       1.0  T
   5    -67.7614192 -0.416050E-04  0.148E-02    2.08       1.1  T
   6    -67.7614195 -0.330835E-06  0.955E-03    2.08       1.7  T
   7    -67.7614205 -0.957317E-06  0.144E-03    2.08      11.1  T
   8    -67.7614205 -0.102526E-07  0.784E-04    2.08      20.4  T
   9    -67.7614205 -0.475265E-08  0.280E-04    2.08      57.1  T
     SCC iter.                  ...        0 min,  0.078 sec
     gradient                   ...        0 min,  0.016 sec
 * total energy  :   -66.8906099 Eh     change       -0.2268731E-01 Eh
   gradient norm :     0.0881679 Eh/α   predicted    -0.1687720E-01 ( -25.61%)
   displ. norm   :     0.4814213 α      lambda       -0.1919582E-01
   maximum displ.:     0.2436499 α      in ANC's #31, #14, #15, ...

........................................................................
.............................. CYCLE    3 ..............................
........................................................................
   1    -67.7989566 -0.677990E+02  0.593E-01    2.14       0.0  T
   2    -67.8018950 -0.293836E-02  0.322E-01    2.26       1.0  T
   3    -67.8023003 -0.405336E-03  0.197E-01    2.24       1.0  T
   4    -67.8026410 -0.340683E-03  0.651E-02    2.26       1.0  T
   5    -67.8026978 -0.567701E-04  0.169E-02    2.25       1.0  T
   6    -67.8026991 -0.134241E-05  0.103E-02    2.25       1.6  T
   7    -67.8027000 -0.884739E-06  0.178E-03    2.25       9.0  T
   8    -67.8027000 -0.195701E-07  0.960E-04    2.25      16.7  T
   9    -67.8027000 -0.757638E-08  0.293E-04    2.25      54.6  T
     SCC iter.                  ...        0 min,  0.068 sec
     gradient                   ...        0 min,  0.019 sec
 * total energy  :   -66.9021235 Eh     change       -0.1151359E-01 Eh
   gradient norm :     0.0196209 Eh/α   predicted    -0.1182238E-01 (   2.68%)
   displ. norm   :     0.3465364 α      lambda       -0.3263936E-02
   maximum displ.:     0.1902533 α      in ANC's #14, #15, #31, ...

........................................................................
.............................. CYCLE    4 ..............................
........................................................................
   1    -67.8118642 -0.678119E+02  0.215E-01    2.27       0.0  T
   2    -67.8119204 -0.562661E-04  0.131E-01    2.27       1.0  T
   3    -67.8118729  0.475176E-04  0.560E-02    2.27       1.0  T
   4    -67.8119314 -0.584734E-04  0.116E-02    2.27       1.4  T
   5    -67.8119345 -0.315506E-05  0.416E-03    2.27       3.9  T
   6    -67.8119346 -0.113950E-07  0.207E-03    2.27       7.7  T
   7    -67.8119346 -0.729819E-07  0.557E-04    2.27      28.7  T
   8    -67.8119346 -0.148353E-08  0.225E-04    2.27      71.1  T
     SCC iter.                  ...        0 min,  0.054 sec
     gradient                   ...        0 min,  0.016 sec
 * total energy  :   -66.9043684 Eh     change       -0.2244923E-02 Eh
   gradient norm :     0.0153545 Eh/α   predicted    -0.1828427E-02 ( -18.55%)
   displ. norm   :     0.3213582 α      lambda       -0.1524618E-02
   maximum displ.:     0.1746436 α      in ANC's #14, #15, #6, ...

........................................................................
.............................. CYCLE    5 ..............................
........................................................................
   1    -67.8157470 -0.678157E+02  0.111E-01    2.26       0.0  T
   2    -67.8157686 -0.216189E-04  0.705E-02    2.26       1.0  T
   3    -67.8157543  0.142969E-04  0.293E-02    2.25       1.0  T
   4    -67.8157730 -0.186649E-04  0.791E-03    2.25       2.0  T
   5    -67.8157739 -0.875508E-06  0.361E-03    2.25       4.4  T
   6    -67.8157739 -0.823924E-08  0.173E-03    2.26       9.3  T
   7    -67.8157739 -0.443105E-07  0.391E-04    2.26      40.9  T
   8    -67.8157739 -0.984016E-09  0.135E-04    2.26     119.0  T
     SCC iter.                  ...        0 min,  0.055 sec
     gradient                   ...        0 min,  0.016 sec
 * total energy  :   -66.9053409 Eh     change       -0.9724663E-03 Eh
   gradient norm :     0.0067854 Eh/α   predicted    -0.8410337E-03 ( -13.52%)
   displ. norm   :     0.2202928 α      lambda       -0.4102079E-03
   maximum displ.:     0.1340166 α      in ANC's #2, #6, #14, ...

........................................................................
.............................. CYCLE    6 ..............................
........................................................................
   1    -67.8191960 -0.678192E+02  0.485E-02    2.25       0.0  T
   2    -67.8191999 -0.396243E-05  0.289E-02    2.24       1.0  T
   3    -67.8191979  0.200463E-05  0.112E-02    2.24       1.4  T
   4    -67.8192005 -0.263270E-05  0.269E-03    2.24       5.9  T
   5    -67.8192007 -0.172216E-06  0.112E-03    2.24      14.3  T
   6    -67.8192007  0.100000E-08  0.519E-04    2.24      30.8  T
   7    -67.8192007 -0.406786E-08  0.138E-04    2.24     115.6  T
     SCC iter.                  ...        0 min,  0.048 sec
     gradient                   ...        0 min,  0.016 sec
 * total energy  :   -66.9056363 Eh     change       -0.2953637E-03 Eh
   gradient norm :     0.0040939 Eh/α   predicted    -0.2150594E-03 ( -27.19%)
   displ. norm   :     0.2014665 α      lambda       -0.2399556E-03
   maximum displ.:     0.1477251 α      in ANC's #2, #6, #14, ...

........................................................................
.............................. CYCLE    7 ..............................
........................................................................
   1    -67.8212746 -0.678213E+02  0.346E-02    2.24       0.0  T
   2    -67.8212760 -0.139611E-05  0.197E-02    2.24       1.0  T
   3    -67.8212753  0.700793E-06  0.693E-03    2.24       2.3  T
   4    -67.8212762 -0.934417E-06  0.141E-03    2.24      11.3  T
   5    -67.8212763 -0.428698E-07  0.655E-04    2.24      24.5  T
   6    -67.8212763 -0.133710E-09  0.351E-04    2.24      45.6  T
     SCC iter.                  ...        0 min,  0.042 sec
     gradient                   ...        0 min,  0.016 sec
 * total energy  :   -66.9058269 Eh     change       -0.1906548E-03 Eh
   gradient norm :     0.0033962 Eh/α   predicted    -0.1248477E-03 ( -34.52%)
   displ. norm   :     0.1875051 α      lambda       -0.1827272E-03
   maximum displ.:     0.1460404 α      in ANC's #2, #6, #15, ...

........................................................................
.............................. CYCLE    8 ..............................
........................................................................
   1    -67.8218994 -0.678219E+02  0.302E-02    2.24       0.0  T
   2    -67.8218999 -0.472413E-06  0.177E-02    2.24       1.0  T
   3    -67.8218996  0.295078E-06  0.423E-03    2.24       3.8  T
   4    -67.8219000 -0.396641E-06  0.982E-04    2.24      16.3  T
   5    -67.8219000 -0.981785E-08  0.536E-04    2.24      29.8  T
     SCC iter.                  ...        0 min,  0.036 sec
     gradient                   ...        0 min,  0.016 sec
 * total energy  :   -66.9059821 Eh     change       -0.1551424E-03 Eh
   gradient norm :     0.0033954 Eh/α   predicted    -0.9457718E-04 ( -39.04%)
   displ. norm   :     0.1971616 α      lambda       -0.1648355E-03
   maximum displ.:     0.1554262 α      in ANC's #2, #6, #15, ...

........................................................................
.............................. CYCLE    9 ..............................
........................................................................
   1    -67.8216656 -0.678217E+02  0.314E-02    2.24       0.0  T
   2    -67.8216661 -0.533574E-06  0.186E-02    2.24       1.0  T
   3    -67.8216658  0.301825E-06  0.390E-03    2.24       4.1  T
   4    -67.8216662 -0.398214E-06  0.105E-03    2.24      15.3  T
   5    -67.8216662 -0.149954E-07  0.558E-04    2.24      28.7  T
   6    -67.8216662 -0.879822E-09  0.270E-04    2.24      59.2  T
     SCC iter.                  ...        0 min,  0.045 sec
     gradient                   ...        0 min,  0.017 sec
 * total energy  :   -66.9061205 Eh     change       -0.1384586E-03 Eh
   gradient norm :     0.0029853 Eh/α   predicted    -0.8562749E-04 ( -38.16%)
   displ. norm   :     0.1670794 α      lambda       -0.1147544E-03
   maximum displ.:     0.1397708 α      in ANC's #2, #6, #15, ...

........................................................................
.............................. CYCLE   10 ..............................
........................................................................
   1    -67.8212638 -0.678213E+02  0.257E-02    2.25       0.0  T
   2    -67.8212644 -0.547780E-06  0.149E-02    2.25       1.1  T
   3    -67.8212641  0.283951E-06  0.391E-03    2.25       4.1  T
   4    -67.8212644 -0.364432E-06  0.105E-03    2.25      15.3  T
   5    -67.8212645 -0.200597E-07  0.518E-04    2.25      30.9  T
   6    -67.8212645 -0.979981E-09  0.245E-04    2.25      65.5  T
     SCC iter.                  ...        0 min,  0.041 sec
     gradient                   ...        0 min,  0.016 sec
 * total energy  :   -66.9062171 Eh     change       -0.9652998E-04 Eh
   gradient norm :     0.0021795 Eh/α   predicted    -0.5898068E-04 ( -38.90%)
   displ. norm   :     0.1119775 α      lambda       -0.6702612E-04
   maximum displ.:     0.1029616 α      in ANC's #2, #6, #15, ...

........................................................................
.............................. CYCLE   11 ..............................
........................................................................
   1    -67.8211361 -0.678211E+02  0.161E-02    2.25       0.0  T
   2    -67.8211364 -0.323089E-06  0.916E-03    2.25       1.7  T
   3    -67.8211363  0.147062E-06  0.311E-03    2.25       5.1  T
   4    -67.8211365 -0.199940E-06  0.747E-04    2.25      21.4  T
   5    -67.8211365 -0.107498E-07  0.351E-04    2.25      45.6  T
     SCC iter.                  ...        0 min,  0.035 sec
     gradient                   ...        0 min,  0.016 sec
 * total energy  :   -66.9062764 Eh     change       -0.5929342E-04 Eh
   gradient norm :     0.0014573 Eh/α   predicted    -0.3393364E-04 ( -42.77%)
   displ. norm   :     0.1117064 α      lambda       -0.4550632E-04
   maximum displ.:     0.1100144 α      in ANC's #2, #3, #15, ...

........................................................................
.............................. CYCLE   12 ..............................
........................................................................
   1    -67.8212184 -0.678212E+02  0.152E-02    2.26       0.0  T
   2    -67.8212188 -0.363222E-06  0.863E-03    2.26       1.9  T
   3    -67.8212186  0.123276E-06  0.321E-03    2.26       5.0  T
   4    -67.8212188 -0.186778E-06  0.742E-04    2.26      21.6  T
   5    -67.8212188 -0.952494E-08  0.351E-04    2.26      45.7  T
     SCC iter.                  ...        0 min,  0.035 sec
     gradient                   ...        0 min,  0.016 sec
 * total energy  :   -66.9063371 Eh     change       -0.6071251E-04 Eh
   gradient norm :     0.0014229 Eh/α   predicted    -0.2287976E-04 ( -62.31%)
   displ. norm   :     0.0939389 α      lambda       -0.3887463E-04
   maximum displ.:     0.0882558 α      in ANC's #2, #6, #3, ...

........................................................................
.............................. CYCLE   13 ..............................
........................................................................
   1    -67.8213839 -0.678214E+02  0.141E-02    2.26       0.0  T
   2    -67.8213841 -0.147752E-06  0.830E-03    2.26       1.9  T
   3    -67.8213840  0.586585E-07  0.189E-03    2.26       8.5  T
   4    -67.8213841 -0.857828E-07  0.581E-04    2.26      27.5  T
   5    -67.8213841 -0.357996E-08  0.310E-04    2.26      51.6  T
     SCC iter.                  ...        0 min,  0.038 sec
     gradient                   ...        0 min,  0.016 sec
 * total energy  :   -66.9063890 Eh     change       -0.5192843E-04 Eh
   gradient norm :     0.0018248 Eh/α   predicted    -0.1952074E-04 ( -62.41%)
   displ. norm   :     0.1060389 α      lambda       -0.4241413E-04
   maximum displ.:     0.0921985 α      in ANC's #2, #6, #15, ...

........................................................................
.............................. CYCLE   14 ..............................
........................................................................
   1    -67.8215846 -0.678216E+02  0.173E-02    2.26       0.0  T
   2    -67.8215847 -0.125275E-06  0.102E-02    2.26       1.6  T
   3    -67.8215846  0.661271E-07  0.176E-03    2.26       9.1  T
   4    -67.8215847 -0.892878E-07  0.649E-04    2.26      24.7  T
   5    -67.8215847 -0.646770E-08  0.347E-04    2.26      46.2  T
     SCC iter.                  ...        0 min,  0.035 sec
     gradient                   ...        0 min,  0.016 sec
 * total energy  :   -66.9064455 Eh     change       -0.5649789E-04 Eh
   gradient norm :     0.0016420 Eh/α   predicted    -0.2131629E-04 ( -62.27%)
   displ. norm   :     0.1192637 α      lambda       -0.4017353E-04
   maximum displ.:     0.1028248 α      in ANC's #2, #6, #15, ...

........................................................................
.............................. CYCLE   15 ..............................
........................................................................
   1    -67.8217598 -0.678218E+02  0.196E-02    2.26       0.0  T
   2    -67.8217600 -0.159326E-06  0.114E-02    2.26       1.4  T
   3    -67.8217598  0.193164E-06  0.265E-03    2.26       6.0  T
   4    -67.8217600 -0.240685E-06  0.644E-04    2.26      24.9  T
   5    -67.8217600 -0.522861E-08  0.349E-04    2.26      45.9  T
     SCC iter.                  ...        0 min,  0.036 sec
     gradient                   ...        0 min,  0.016 sec
 * total energy  :   -66.9064984 Eh     change       -0.5290475E-04 Eh
   gradient norm :     0.0011336 Eh/α   predicted    -0.2021468E-04 ( -61.79%)
   displ. norm   :     0.1102796 α      lambda       -0.3232318E-04
   maximum displ.:     0.0983642 α      in ANC's #2, #6, #10, ...

........................................................................
.............................. CYCLE   16 ..............................
........................................................................
   1    -67.8218303 -0.678218E+02  0.192E-02    2.26       0.0  T
   2    -67.8218304 -0.163919E-06  0.112E-02    2.26       1.4  T
   3    -67.8218302  0.190254E-06  0.272E-03    2.26       5.9  T
   4    -67.8218305 -0.236210E-06  0.612E-04    2.26      26.2  T
   5    -67.8218305 -0.498133E-08  0.336E-04    2.26      47.6  T
     SCC iter.                  ...        0 min,  0.039 sec
     gradient                   ...        0 min,  0.016 sec
 * total energy  :   -66.9065376 Eh     change       -0.3923664E-04 Eh
   gradient norm :     0.0011025 Eh/α   predicted    -0.1625258E-04 ( -58.58%)
   displ. norm   :     0.0814272 α      lambda       -0.2221506E-04
   maximum displ.:     0.0771572 α      in ANC's #2, #6, #10, ...

........................................................................
.............................. CYCLE   17 ..............................
........................................................................
   1    -67.8219260 -0.678219E+02  0.131E-02    2.26       0.0  T
   2    -67.8219261 -0.673016E-07  0.774E-03    2.26       2.1  T
   3    -67.8219260  0.763732E-07  0.180E-03    2.26       8.9  T
   4    -67.8219261 -0.962376E-07  0.430E-04    2.26      37.2  T
   5    -67.8219261 -0.175169E-08  0.244E-04    2.26      65.7  T
     SCC iter.                  ...        0 min,  0.035 sec
     gradient                   ...        0 min,  0.016 sec
 * total energy  :   -66.9065666 Eh     change       -0.2899720E-04 Eh
   gradient norm :     0.0007844 Eh/α   predicted    -0.1114157E-04 ( -61.58%)
   displ. norm   :     0.0618122 α      lambda       -0.1495335E-04
   maximum displ.:     0.0608652 α      in ANC's #2, #10, #5, ...

........................................................................
.............................. CYCLE   18 ..............................
........................................................................
   1    -67.8220424 -0.678220E+02  0.829E-03    2.26       0.0  T
   2    -67.8220424 -0.164035E-07  0.491E-03    2.26       3.3  T
   3    -67.8220424  0.187258E-07  0.932E-04    2.26      17.2  T
   4    -67.8220424 -0.255478E-07  0.260E-04    2.26      61.5  T
     SCC iter.                  ...        0 min,  0.029 sec
     gradient                   ...        0 min,  0.016 sec
 * total energy  :   -66.9065880 Eh     change       -0.2140608E-04 Eh
   gradient norm :     0.0008481 Eh/α   predicted    -0.7492119E-05 ( -65.00%)
   displ. norm   :     0.0576249 α      lambda       -0.1411323E-04
   maximum displ.:     0.0548103 α      in ANC's #2, #6, #5, ...

........................................................................
.............................. CYCLE   19 ..............................
........................................................................
   1    -67.8221060 -0.678221E+02  0.779E-03    2.26       0.0  T
   2    -67.8221060 -0.198975E-07  0.463E-03    2.26       3.5  T
   3    -67.8221060  0.176088E-07  0.950E-04    2.26      16.9  T
   4    -67.8221060 -0.247162E-07  0.286E-04    2.26      56.0  T
     SCC iter.                  ...        0 min,  0.029 sec
     gradient                   ...        0 min,  0.016 sec
 * total energy  :   -66.9066082 Eh     change       -0.2012028E-04 Eh
   gradient norm :     0.0007220 Eh/α   predicted    -0.7068190E-05 ( -64.87%)
   displ. norm   :     0.0643171 α      lambda       -0.1462527E-04
   maximum displ.:     0.0587545 α      in ANC's #2, #6, #5, ...

........................................................................
.............................. CYCLE   20 ..............................
........................................................................
   1    -67.8221475 -0.678221E+02  0.866E-03    2.26       0.0  T
   2    -67.8221476 -0.254814E-07  0.509E-03    2.26       3.1  T
   3    -67.8221475  0.200876E-07  0.998E-04    2.26      16.0  T
   4    -67.8221476 -0.285647E-07  0.276E-04    2.26      58.0  T
     SCC iter.                  ...        0 min,  0.029 sec
     gradient                   ...        0 min,  0.016 sec
 * total energy  :   -66.9066284 Eh     change       -0.2028598E-04 Eh
   gradient norm :     0.0004855 Eh/α   predicted    -0.7329315E-05 ( -63.87%)
   displ. norm   :     0.0678828 α      lambda       -0.1352074E-04
   maximum displ.:     0.0611805 α      in ANC's #2, #6, #5, ...
 * RMSD in coord.:     0.3993771 α      energy gain  -0.3870583E-01 Eh

generating ANC from model Hessian ...
Using Lindh-Hessian (1995)
 Shifting diagonal of input Hessian by   9.758593507683277E-003
 Lowest  eigenvalues of input Hessian
    0.000000    0.000000    0.000000    0.000000    0.000000    0.000000
    0.010000    0.010147    0.010270    0.010875    0.011851    0.012340
    0.012827    0.013563    0.014213    0.015113    0.015634    0.017428
 Highest eigenvalues
    2.013890    2.055542    2.088673    2.115859    2.169015    2.371410
 

........................................................................
.............................. CYCLE   21 ..............................
........................................................................
   1    -67.8222387 -0.678222E+02  0.927E-03    2.26       0.0  T
   2    -67.8222387 -0.397704E-07  0.546E-03    2.26       2.9  T
   3    -67.8222387  0.415065E-07  0.132E-03    2.26      12.1  T
   4    -67.8222388 -0.545652E-07  0.336E-04    2.26      47.7  T
   5    -67.8222388 -0.858549E-09  0.187E-04    2.26      85.8  T
     SCC iter.                  ...        0 min,  0.035 sec
     gradient                   ...        0 min,  0.016 sec
 * total energy  :   -66.9066467 Eh     change       -0.1829334E-04 Eh
   gradient norm :     0.0003936 Eh/α   predicted     0.0000000E+00 (-100.00%)
   displ. norm   :     0.0404572 α      lambda       -0.7754787E-05
   maximum displ.:     0.0400575 α      in ANC's #2, #3, #5, ...

........................................................................
.............................. CYCLE   22 ..............................
........................................................................
   1    -67.8222604 -0.678223E+02  0.464E-03    2.26       0.0  T
   2    -67.8222604 -0.582511E-08  0.276E-03    2.26       5.8  T
   3    -67.8222604  0.655557E-08  0.551E-04    2.26      29.1  T
   4    -67.8222604 -0.947644E-08  0.150E-04    2.26     106.9  T
     SCC iter.                  ...        0 min,  0.030 sec
     gradient                   ...        0 min,  0.016 sec
 * total energy  :   -66.9066575 Eh     change       -0.1077560E-04 Eh
   gradient norm :     0.0003357 Eh/α   predicted    -0.3883391E-05 ( -63.96%)
   displ. norm   :     0.0402114 α      lambda       -0.6962478E-05
   maximum displ.:     0.0392267 α      in ANC's #2, #3, #5, ...

........................................................................
.............................. CYCLE   23 ..............................
........................................................................
   1    -67.8223037 -0.678223E+02  0.467E-03    2.26       0.0  T
   2    -67.8223037 -0.767942E-08  0.275E-03    2.26       5.8  T
   3    -67.8223037  0.116851E-07  0.706E-04    2.26      22.7  T
   4    -67.8223037 -0.155034E-07  0.171E-04    2.26      93.8  T
     SCC iter.                  ...        0 min,  0.036 sec
     gradient                   ...        0 min,  0.019 sec
 * total energy  :   -66.9066676 Eh     change       -0.1007118E-04 Eh
   gradient norm :     0.0002752 Eh/α   predicted    -0.3487722E-05 ( -65.37%)
   displ. norm   :     0.0414187 α      lambda       -0.6637135E-05
   maximum displ.:     0.0394947 α      in ANC's #2, #3, #1, ...

........................................................................
.............................. CYCLE   24 ..............................
........................................................................
   1    -67.8223516 -0.678224E+02  0.561E-03    2.26       0.0  T
   2    -67.8223516 -0.862929E-08  0.330E-03    2.26       4.8  T
   3    -67.8223516  0.115526E-07  0.701E-04    2.26      22.8  T
   4    -67.8223516 -0.154523E-07  0.202E-04    2.26      79.4  T
     SCC iter.                  ...        0 min,  0.031 sec
     gradient                   ...        0 min,  0.016 sec
 * total energy  :   -66.9066772 Eh     change       -0.9606780E-05 Eh
   gradient norm :     0.0002513 Eh/α   predicted    -0.3326034E-05 ( -65.38%)
   displ. norm   :     0.0440359 α      lambda       -0.6541383E-05
   maximum displ.:     0.0405654 α      in ANC's #2, #3, #1, ...

........................................................................
.............................. CYCLE   25 ..............................
........................................................................
   1    -67.8223771 -0.678224E+02  0.682E-03    2.26       0.0  T
   2    -67.8223772 -0.832489E-08  0.401E-03    2.26       4.0  T
   3    -67.8223771  0.771014E-08  0.640E-04    2.26      25.0  T
   4    -67.8223772 -0.117077E-07  0.221E-04    2.26      72.5  T
     SCC iter.                  ...        0 min,  0.029 sec
     gradient                   ...        0 min,  0.016 sec
 * total energy  :   -66.9066866 Eh     change       -0.9376703E-05 Eh
   gradient norm :     0.0002703 Eh/α   predicted    -0.3273946E-05 ( -65.08%)
   displ. norm   :     0.0489514 α      lambda       -0.6725137E-05
   maximum displ.:     0.0431967 α      in ANC's #2, #3, #6, ...

........................................................................
.............................. CYCLE   26 ..............................
........................................................................
   1    -67.8223944 -0.678224E+02  0.840E-03    2.26       0.0  T
   2    -67.8223944 -0.964945E-08  0.494E-03    2.26       3.2  T
   3    -67.8223944  0.598487E-08  0.643E-04    2.26      24.9  T
   4    -67.8223944 -0.110349E-07  0.247E-04    2.26      64.9  T
     SCC iter.                  ...        0 min,  0.029 sec
     gradient                   ...        0 min,  0.016 sec
 * total energy  :   -66.9066962 Eh     change       -0.9654911E-05 Eh
   gradient norm :     0.0002333 Eh/α   predicted    -0.3367828E-05 ( -65.12%)
   displ. norm   :     0.0582538 α      lambda       -0.7255497E-05
   maximum displ.:     0.0488669 α      in ANC's #2, #3, #6, ...

........................................................................
.............................. CYCLE   27 ..............................
........................................................................
   1    -67.8224371 -0.678224E+02  0.108E-02    2.26       0.0  T
   2    -67.8224371 -0.144135E-07  0.634E-03    2.26       2.5  T
   3    -67.8224371  0.703045E-08  0.741E-04    2.26      21.6  T
   4    -67.8224371 -0.148732E-07  0.298E-04    2.26      53.7  T
     SCC iter.                  ...        0 min,  0.029 sec
     gradient                   ...        0 min,  0.016 sec
 * total energy  :   -66.9067067 Eh     change       -0.1052505E-04 Eh
   gradient norm :     0.0002052 Eh/α   predicted    -0.3634003E-05 ( -65.47%)
   displ. norm   :     0.0807258 α      lambda       -0.9208939E-05
   maximum displ.:     0.0640954 α      in ANC's #2, #6, #3, ...

........................................................................
.............................. CYCLE   28 ..............................
........................................................................
   1    -67.8224832 -0.678225E+02  0.162E-02    2.26       0.0  T
   2    -67.8224832 -0.285301E-07  0.949E-03    2.26       1.7  T
   3    -67.8224832  0.601402E-08  0.949E-04    2.26      16.9  T
   4    -67.8224832 -0.218077E-07  0.429E-04    2.26      37.4  T
     SCC iter.                  ...        0 min,  0.029 sec
     gradient                   ...        0 min,  0.016 sec
 * total energy  :   -66.9067201 Eh     change       -0.1335014E-04 Eh
   gradient norm :     0.0001917 Eh/α   predicted    -0.4618499E-05 ( -65.40%)
   displ. norm   :     0.1421712 α      lambda       -0.1493577E-04
   maximum displ.:     0.1077239 α      in ANC's #2, #6, #3, ...

........................................................................
.............................. CYCLE   29 ..............................
........................................................................
   1    -67.8225047 -0.678225E+02  0.302E-02    2.26       0.0  T
   2    -67.8225048 -0.915324E-07  0.177E-02    2.26       1.0  T
   3    -67.8225048 -0.446613E-08  0.151E-03    2.26      10.6  T
   4    -67.8225048 -0.457919E-07  0.770E-04    2.26      20.8  T
   5    -67.8225048 -0.134179E-08  0.265E-04    2.26      60.5  T
     SCC iter.                  ...        0 min,  0.035 sec
     gradient                   ...        0 min,  0.016 sec
 * total energy  :   -66.9067412 Eh     change       -0.2106195E-04 Eh
   gradient norm :     0.0002852 Eh/α   predicted    -0.7545327E-05 ( -64.18%)
   displ. norm   :     0.3369421 α      lambda       -0.3139648E-04
   maximum displ.:     0.2489157 α      in ANC's #2, #6, #3, ...

........................................................................
.............................. CYCLE   30 ..............................
........................................................................
   1    -67.8221832 -0.678222E+02  0.744E-02    2.26       0.0  T
   2    -67.8221837 -0.521883E-06  0.435E-02    2.26       1.0  T
   3    -67.8221839 -0.159439E-06  0.297E-03    2.26       5.4  T
   4    -67.8221840 -0.110761E-06  0.169E-03    2.26       9.5  T
   5    -67.8221840 -0.116604E-07  0.607E-04    2.26      26.4  T
   6    -67.8221840 -0.329656E-08  0.209E-04    2.26      76.6  T
     SCC iter.                  ...        0 min,  0.041 sec
     gradient                   ...        0 min,  0.016 sec
 * total energy  :   -66.9067793 Eh     change       -0.3811618E-04 Eh
   gradient norm :     0.0011892 Eh/α   predicted    -0.1649248E-04 ( -56.73%)
   displ. norm   :     0.5586282 α      lambda       -0.3712451E-04
   maximum displ.:     0.4077914 α      in ANC's #2, #6, #3, ...

........................................................................
.............................. CYCLE   31 ..............................
........................................................................
   1    -67.8208974 -0.678209E+02  0.128E-01    2.26       0.0  T
   2    -67.8208990 -0.159488E-05  0.746E-02    2.26       1.0  T
   3    -67.8208993 -0.333055E-06  0.528E-03    2.26       3.0  T
   4    -67.8208998 -0.451482E-06  0.280E-03    2.26       5.7  T
   5    -67.8208998 -0.310738E-07  0.114E-03    2.26      14.0  T
   6    -67.8208998 -0.614496E-08  0.392E-04    2.26      40.8  T
   7    -67.8208998 -0.299008E-08  0.153E-04    2.26     104.6  T
     SCC iter.                  ...        0 min,  0.048 sec
     gradient                   ...        0 min,  0.016 sec
 * total energy  :   -66.9068117 Eh     change       -0.3238817E-04 Eh
   gradient norm :     0.0037696 Eh/α   predicted    -0.2114611E-04 ( -34.71%)
   displ. norm   :     0.2688009 α      lambda       -0.3132486E-04
   maximum displ.:     0.1942171 α      in ANC's #2, #6, #1, ...

........................................................................
.............................. CYCLE   32 ..............................
........................................................................
   1    -67.8210093 -0.678210E+02  0.648E-02    2.26       0.0  T
   2    -67.8210096 -0.381301E-06  0.379E-02    2.26       1.0  T
   3    -67.8210096  0.202026E-08  0.310E-03    2.26       5.2  T
   4    -67.8210099 -0.206141E-06  0.141E-03    2.26      11.3  T
   5    -67.8210099 -0.171298E-08  0.537E-04    2.26      29.8  T
   6    -67.8210099 -0.314336E-08  0.145E-04    2.26     110.8  T
     SCC iter.                  ...        0 min,  0.043 sec
     gradient                   ...        0 min,  0.016 sec
 * total energy  :   -66.9068408 Eh     change       -0.2913429E-04 Eh
   gradient norm :     0.0036831 Eh/α   predicted    -0.1679506E-04 ( -42.35%)
   displ. norm   :     0.6474424 α      lambda       -0.1101089E-03
   maximum displ.:     0.4573729 α      in ANC's #2, #6, #1, ...

........................................................................
.............................. CYCLE   33 ..............................
........................................................................
   1    -67.8214303 -0.678214E+02  0.165E-01    2.26       0.0  T
   2    -67.8214328 -0.246788E-05  0.962E-02    2.26       1.0  T
   3    -67.8214323  0.478605E-06  0.863E-03    2.27       1.9  T
   4    -67.8214341 -0.178498E-05  0.343E-03    2.26       4.7  T
   5    -67.8214341 -0.761374E-08  0.147E-03    2.26      10.9  T
   6    -67.8214341 -0.199523E-07  0.366E-04    2.26      43.7  T
   7    -67.8214341 -0.183631E-08  0.165E-04    2.26      97.0  T
     SCC iter.                  ...        0 min,  0.048 sec
     gradient                   ...        0 min,  0.016 sec
 * total energy  :   -66.9069481 Eh     change       -0.1073271E-03 Eh
   gradient norm :     0.0036849 Eh/α   predicted    -0.7814317E-04 ( -27.19%)
   displ. norm   :     0.5819260 α      lambda       -0.2082255E-03
   maximum displ.:     0.3759665 α      in ANC's #2, #6, #1, ...

........................................................................
.............................. CYCLE   34 ..............................
........................................................................
   1    -67.8263447 -0.678263E+02  0.170E-01    2.28       0.0  T
   2    -67.8263535 -0.879419E-05  0.991E-02    2.27       1.0  T
   3    -67.8263419  0.115616E-04  0.235E-02    2.28       1.0  T
   4    -67.8263570 -0.151037E-04  0.366E-03    2.28       4.4  T
   5    -67.8263570 -0.322004E-07  0.226E-03    2.28       7.1  T
   6    -67.8263570 -0.616348E-08  0.978E-04    2.28      16.4  T
   7    -67.8263570 -0.113310E-07  0.233E-04    2.28      68.6  T
     SCC iter.                  ...        0 min,  0.048 sec
     gradient                   ...        0 min,  0.016 sec
 * total energy  :   -66.9070532 Eh     change       -0.1050891E-03 Eh
   gradient norm :     0.0058479 Eh/α   predicted    -0.1393705E-03 (  32.62%)
   displ. norm   :     0.6571235 α      lambda       -0.1802862E-03
   maximum displ.:     0.4418524 α      in ANC's #2, #6, #1, ...

........................................................................
.............................. CYCLE   35 ..............................
........................................................................
   1    -67.8174536 -0.678175E+02  0.184E-01    2.27       0.0  T
   2    -67.8174682 -0.145899E-04  0.107E-01    2.28       1.0  T
   3    -67.8174473  0.209189E-04  0.317E-02    2.26       1.0  T
   4    -67.8174745 -0.271824E-04  0.417E-03    2.27       3.8  T
   5    -67.8174746 -0.506629E-07  0.256E-03    2.27       6.3  T
   6    -67.8174746 -0.256047E-07  0.134E-03    2.27      11.9  T
   7    -67.8174746 -0.174369E-07  0.371E-04    2.27      43.2  T
   8    -67.8174746 -0.647319E-09  0.187E-04    2.27      85.5  T
     SCC iter.                  ...        0 min,  0.054 sec
     gradient                   ...        0 min,  0.016 sec
 * total energy  :   -66.9069893 Eh     change        0.6390544E-04 Eh
   gradient norm :     0.0116960 Eh/α   predicted    -0.1290709E-03 (-301.97%)
   displ. norm   :     0.1797163 α      lambda       -0.3021361E-03
   maximum displ.:     0.1308490 α      in ANC's #2, #6, #3, ...

........................................................................
.............................. CYCLE   36 ..............................
........................................................................
   1    -67.8234686 -0.678235E+02  0.635E-02    2.28       0.0  T
   2    -67.8234749 -0.631513E-05  0.365E-02    2.28       1.0  T
   3    -67.8234715  0.341026E-05  0.176E-02    2.29       1.0  T
   4    -67.8234774 -0.595216E-05  0.209E-03    2.28       7.7  T
   5    -67.8234774 -0.275009E-07  0.117E-03    2.28      13.7  T
   6    -67.8234775 -0.118675E-07  0.711E-04    2.28      22.5  T
   7    -67.8234775 -0.365422E-08  0.241E-04    2.28      66.3  T
     SCC iter.                  ...        0 min,  0.048 sec
     gradient                   ...        0 min,  0.016 sec
 * total energy  :   -66.9071613 Eh     change       -0.1719573E-03 Eh
   gradient norm :     0.0027226 Eh/α   predicted    -0.1559512E-03 (  -9.31%)
   displ. norm   :     0.0699122 α      lambda       -0.5516195E-04
   maximum displ.:     0.0355064 α      in ANC's #1, #6, #9, ...

........................................................................
.............................. CYCLE   37 ..............................
........................................................................
   1    -67.8252569 -0.678253E+02  0.242E-02    2.29       0.0  T
   2    -67.8252572 -0.217990E-06  0.141E-02    2.29       1.1  T
   3    -67.8252569  0.263366E-06  0.365E-03    2.29       4.4  T
   4    -67.8252572 -0.345417E-06  0.521E-04    2.29      30.8  T
   5    -67.8252572 -0.548823E-09  0.308E-04    2.29      51.9  T
     SCC iter.                  ...        0 min,  0.035 sec
     gradient                   ...        0 min,  0.016 sec
 * total energy  :   -66.9072056 Eh     change       -0.4432119E-04 Eh
   gradient norm :     0.0018102 Eh/α   predicted    -0.2772216E-04 ( -37.45%)
   displ. norm   :     0.3050932 α      lambda       -0.1000464E-03
   maximum displ.:     0.1566517 α      in ANC's #1, #6, #9, ...

........................................................................
.............................. CYCLE   38 ..............................
........................................................................
   1    -67.8267113 -0.678267E+02  0.989E-02    2.30       0.0  T
   2    -67.8267127 -0.139414E-05  0.577E-02    2.30       1.0  T
   3    -67.8267111  0.161001E-05  0.824E-03    2.30       1.9  T
   4    -67.8267134 -0.225012E-05  0.200E-03    2.30       8.0  T
   5    -67.8267134 -0.816682E-08  0.110E-03    2.30      14.6  T
   6    -67.8267134 -0.440249E-08  0.414E-04    2.30      38.7  T
   7    -67.8267134 -0.271740E-08  0.871E-05    2.30     183.8  T
     SCC iter.                  ...        0 min,  0.048 sec
     gradient                   ...        0 min,  0.016 sec
 * total energy  :   -66.9073087 Eh     change       -0.1031481E-03 Eh
   gradient norm :     0.0033008 Eh/α   predicted    -0.5209422E-04 ( -49.50%)
   displ. norm   :     0.2778545 α      lambda       -0.1004422E-03
   maximum displ.:     0.1439459 α      in ANC's #1, #6, #4, ...

........................................................................
.............................. CYCLE   39 ..............................
........................................................................
   1    -67.8256568 -0.678257E+02  0.908E-02    2.31       0.0  T
   2    -67.8256576 -0.792006E-06  0.530E-02    2.31       1.0  T
   3    -67.8256569  0.676319E-06  0.614E-03    2.31       2.6  T
   4    -67.8256580 -0.109906E-05  0.198E-03    2.31       8.1  T
   5    -67.8256580 -0.182401E-08  0.867E-04    2.31      18.5  T
   6    -67.8256580 -0.705337E-08  0.243E-04    2.31      65.8  T
     SCC iter.                  ...        0 min,  0.047 sec
     gradient                   ...        0 min,  0.016 sec
 * total energy  :   -66.9073913 Eh     change       -0.8256958E-04 Eh
   gradient norm :     0.0031246 Eh/α   predicted    -0.5410044E-04 ( -34.48%)
   displ. norm   :     0.3865683 α      lambda       -0.1346495E-03
   maximum displ.:     0.2079766 α      in ANC's #1, #6, #4, ...

........................................................................
.............................. CYCLE   40 ..............................
........................................................................
   1    -67.8230114 -0.678230E+02  0.125E-01    2.32       0.0  T
   2    -67.8230128 -0.145007E-05  0.732E-02    2.32       1.0  T
   3    -67.8230111  0.177448E-05  0.929E-03    2.32       1.7  T
   4    -67.8230137 -0.263530E-05  0.304E-03    2.32       5.3  T
   5    -67.8230137 -0.389403E-08  0.107E-03    2.32      14.9  T
   6    -67.8230137 -0.992783E-08  0.313E-04    2.32      51.1  T
   7    -67.8230137 -0.184424E-08  0.115E-04    2.32     139.5  T
     SCC iter.                  ...        0 min,  0.048 sec
     gradient                   ...        0 min,  0.016 sec
 * total energy  :   -66.9074951 Eh     change       -0.1038281E-03 Eh
   gradient norm :     0.0041711 Eh/α   predicted    -0.7738928E-04 ( -25.46%)
   displ. norm   :     0.2899742 α      lambda       -0.1207056E-03
   maximum displ.:     0.1695544 α      in ANC's #1, #4, #6, ...

........................................................................
.............................. CYCLE   41 ..............................
........................................................................
   1    -67.8219078 -0.678219E+02  0.859E-02    2.33       0.0  T
   2    -67.8219095 -0.169499E-05  0.505E-02    2.32       1.0  T
   3    -67.8219074  0.204567E-05  0.979E-03    2.33       1.6  T
   4    -67.8219101 -0.270467E-05  0.225E-03    2.32       7.1  T
   5    -67.8219101 -0.529199E-08  0.115E-03    2.32      14.0  T
   6    -67.8219102 -0.904747E-08  0.478E-04    2.32      33.5  T
   7    -67.8219102 -0.191909E-08  0.888E-05    2.32     180.3  T
     SCC iter.                  ...        0 min,  0.047 sec
     gradient                   ...        0 min,  0.016 sec
 * total energy  :   -66.9075851 Eh     change       -0.8999247E-04 Eh
   gradient norm :     0.0042924 Eh/α   predicted    -0.6543299E-04 ( -27.29%)
   displ. norm   :     0.2332621 α      lambda       -0.1311184E-03
   maximum displ.:     0.1408406 α      in ANC's #1, #4, #2, ...

........................................................................
.............................. CYCLE   42 ..............................
........................................................................
   1    -67.8234378 -0.678234E+02  0.621E-02    2.34       0.0  T
   2    -67.8234384 -0.646009E-06  0.364E-02    2.33       1.0  T
   3    -67.8234376  0.785096E-06  0.597E-03    2.34       2.7  T
   4    -67.8234387 -0.106991E-05  0.149E-03    2.34      10.8  T
   5    -67.8234387 -0.181367E-08  0.836E-04    2.34      19.1  T
   6    -67.8234387 -0.247668E-08  0.306E-04    2.34      52.3  T
     SCC iter.                  ...        0 min,  0.042 sec
     gradient                   ...        0 min,  0.016 sec
 * total energy  :   -66.9076943 Eh     change       -0.1092076E-03 Eh
   gradient norm :     0.0046030 Eh/α   predicted    -0.6912725E-04 ( -36.70%)
   displ. norm   :     0.3815425 α      lambda       -0.1949521E-03
   maximum displ.:     0.2330851 α      in ANC's #1, #4, #2, ...
 * RMSD in coord.:     0.7218264 α      energy gain  -0.1065890E-02 Eh

generating ANC from model Hessian ...
Using Lindh-Hessian (1995)
 Shifting diagonal of input Hessian by   9.755034218112977E-003
 Lowest  eigenvalues of input Hessian
    0.000000    0.000000    0.000000    0.000000    0.000000    0.000000
    0.010000    0.010099    0.010301    0.011011    0.011927    0.012442
    0.012951    0.013676    0.014257    0.014943    0.015758    0.018660
 Highest eigenvalues
    2.018840    2.054066    2.090055    2.121721    2.171968    2.368893
 

........................................................................
.............................. CYCLE   43 ..............................
........................................................................
   1    -67.8248176 -0.678248E+02  0.103E-01    2.35       0.0  T
   2    -67.8248192 -0.166883E-05  0.605E-02    2.35       1.0  T
   3    -67.8248166  0.265260E-05  0.104E-02    2.35       1.5  T
   4    -67.8248200 -0.344529E-05  0.279E-03    2.35       5.7  T
   5    -67.8248200 -0.152103E-07  0.145E-03    2.35      11.1  T
   6    -67.8248200 -0.623028E-08  0.415E-04    2.35      38.6  T
   7    -67.8248200 -0.321008E-08  0.964E-05    2.35     166.1  T
     SCC iter.                  ...        0 min,  0.048 sec
     gradient                   ...        0 min,  0.016 sec
 * total energy  :   -66.9078433 Eh     change       -0.1489794E-03 Eh
   gradient norm :     0.0036576 Eh/α   predicted     0.0000000E+00 (-100.00%)
   displ. norm   :     0.0561737 α      lambda       -0.6723686E-04
   maximum displ.:     0.0358619 α      in ANC's #1, #4, #11, ...

........................................................................
.............................. CYCLE   44 ..............................
........................................................................
   1    -67.8253920 -0.678254E+02  0.229E-02    2.35       0.0  T
   2    -67.8253922 -0.196029E-06  0.136E-02    2.35       1.2  T
   3    -67.8253919  0.239672E-06  0.289E-03    2.35       5.5  T
   4    -67.8253922 -0.302232E-06  0.647E-04    2.35      24.8  T
   5    -67.8253922 -0.344291E-08  0.333E-04    2.35      48.1  T
     SCC iter.                  ...        0 min,  0.035 sec
     gradient                   ...        0 min,  0.016 sec
 * total energy  :   -66.9078956 Eh     change       -0.5226315E-04 Eh
   gradient norm :     0.0017653 Eh/α   predicted    -0.3382390E-04 ( -35.28%)
   displ. norm   :     0.1986878 α      lambda       -0.9237208E-04
   maximum displ.:     0.1294630 α      in ANC's #1, #4, #11, ...

........................................................................
.............................. CYCLE   45 ..............................
........................................................................
   1    -67.8262748 -0.678263E+02  0.697E-02    2.35       0.0  T
   2    -67.8262761 -0.127795E-05  0.413E-02    2.35       1.0  T
   3    -67.8262750  0.107478E-05  0.694E-03    2.35       2.3  T
   4    -67.8262765 -0.148446E-05  0.185E-03    2.35       8.7  T
   5    -67.8262765 -0.215954E-07  0.959E-04    2.35      16.7  T
   6    -67.8262765 -0.499836E-08  0.439E-04    2.35      36.5  T
     SCC iter.                  ...        0 min,  0.041 sec
     gradient                   ...        0 min,  0.016 sec
 * total energy  :   -66.9079801 Eh     change       -0.8452383E-04 Eh
   gradient norm :     0.0032341 Eh/α   predicted    -0.4699956E-04 ( -44.39%)
   displ. norm   :     0.0983623 α      lambda       -0.4856339E-04
   maximum displ.:     0.0692661 α      in ANC's #1, #4, #11, ...

........................................................................
.............................. CYCLE   46 ..............................
........................................................................
   1    -67.8261785 -0.678262E+02  0.315E-02    2.35       0.0  T
   2    -67.8261786 -0.111300E-06  0.186E-02    2.35       1.0  T
   3    -67.8261785  0.604902E-07  0.200E-03    2.35       8.0  T
   4    -67.8261786 -0.113620E-06  0.736E-04    2.35      21.8  T
   5    -67.8261786 -0.919044E-09  0.323E-04    2.35      49.6  T
     SCC iter.                  ...        0 min,  0.037 sec
     gradient                   ...        0 min,  0.018 sec
 * total energy  :   -66.9080226 Eh     change       -0.4252665E-04 Eh
   gradient norm :     0.0027499 Eh/α   predicted    -0.2452060E-04 ( -42.34%)
   displ. norm   :     0.1469084 α      lambda       -0.7052851E-04
   maximum displ.:     0.1036269 α      in ANC's #1, #4, #11, ...

........................................................................
.............................. CYCLE   47 ..............................
........................................................................
   1    -67.8258779 -0.678259E+02  0.467E-02    2.35       0.0  T
   2    -67.8258781 -0.250452E-06  0.275E-02    2.35       1.0  T
   3    -67.8258779  0.224523E-06  0.309E-03    2.35       5.2  T
   4    -67.8258783 -0.346802E-06  0.107E-03    2.35      15.0  T
   5    -67.8258783 -0.158596E-08  0.476E-04    2.35      33.6  T
   6    -67.8258783 -0.211442E-08  0.124E-04    2.35     129.1  T
     SCC iter.                  ...        0 min,  0.042 sec
     gradient                   ...        0 min,  0.016 sec
 * total energy  :   -66.9080805 Eh     change       -0.5791240E-04 Eh
   gradient norm :     0.0015950 Eh/α   predicted    -0.3603359E-04 ( -37.78%)
   displ. norm   :     0.2432097 α      lambda       -0.5761498E-04
   maximum displ.:     0.1749018 α      in ANC's #1, #4, #2, ...

........................................................................
.............................. CYCLE   48 ..............................
........................................................................
   1    -67.8252507 -0.678253E+02  0.747E-02    2.35       0.0  T
   2    -67.8252512 -0.526266E-06  0.440E-02    2.35       1.0  T
   3    -67.8252510  0.157313E-06  0.362E-03    2.34       4.4  T
   4    -67.8252514 -0.393621E-06  0.157E-03    2.35      10.2  T
   5    -67.8252514 -0.842105E-08  0.640E-04    2.35      25.0  T
   6    -67.8252514 -0.251669E-08  0.193E-04    2.35      83.2  T
     SCC iter.                  ...        0 min,  0.042 sec
     gradient                   ...        0 min,  0.016 sec
 * total energy  :   -66.9081435 Eh     change       -0.6292383E-04 Eh
   gradient norm :     0.0022967 Eh/α   predicted    -0.2956839E-04 ( -53.01%)
   displ. norm   :     0.0930668 α      lambda       -0.2929943E-04
   maximum displ.:     0.0718286 α      in ANC's #1, #4, #3, ...

........................................................................
.............................. CYCLE   49 ..............................
........................................................................
   1    -67.8255096 -0.678255E+02  0.267E-02    2.35       0.0  T
   2    -67.8255097 -0.524754E-07  0.157E-02    2.34       1.0  T
   3    -67.8255097 -0.874668E-08  0.888E-04    2.34      18.0  T
   4    -67.8255097 -0.133664E-07  0.477E-04    2.34      33.5  T
     SCC iter.                  ...        0 min,  0.029 sec
     gradient                   ...        0 min,  0.016 sec
 * total energy  :   -66.9081701 Eh     change       -0.2665099E-04 Eh
   gradient norm :     0.0019545 Eh/α   predicted    -0.1477747E-04 ( -44.55%)
   displ. norm   :     0.1502386 α      lambda       -0.3666194E-04
   maximum displ.:     0.1192614 α      in ANC's #1, #4, #3, ...

........................................................................
.............................. CYCLE   50 ..............................
........................................................................
   1    -67.8262334 -0.678262E+02  0.413E-02    2.35       0.0  T
   2    -67.8262336 -0.166186E-06  0.244E-02    2.35       1.0  T
   3    -67.8262334  0.151177E-06  0.262E-03    2.35       6.1  T
   4    -67.8262336 -0.223766E-06  0.653E-04    2.35      24.5  T
   5    -67.8262336 -0.160824E-08  0.355E-04    2.35      45.2  T
     SCC iter.                  ...        0 min,  0.035 sec
     gradient                   ...        0 min,  0.017 sec
 * total energy  :   -66.9082158 Eh     change       -0.4563855E-04 Eh
   gradient norm :     0.0011669 Eh/α   predicted    -0.1851756E-04 ( -59.43%)
   displ. norm   :     0.1535621 α      lambda       -0.3054921E-04
   maximum displ.:     0.1233621 α      in ANC's #1, #3, #4, ...

........................................................................
.............................. CYCLE   51 ..............................
........................................................................
   1    -67.8261486 -0.678261E+02  0.401E-02    2.35       0.0  T
   2    -67.8261487 -0.125883E-06  0.236E-02    2.35       1.0  T
   3    -67.8261486  0.133437E-06  0.234E-03    2.35       6.8  T
   4    -67.8261488 -0.199851E-06  0.617E-04    2.35      26.0  T
   5    -67.8261488 -0.341984E-09  0.295E-04    2.35      54.3  T
     SCC iter.                  ...        0 min,  0.036 sec
     gradient                   ...        0 min,  0.016 sec
 * total energy  :   -66.9082559 Eh     change       -0.4014839E-04 Eh
   gradient norm :     0.0012174 Eh/α   predicted    -0.1543705E-04 ( -61.55%)
   displ. norm   :     0.1402129 α      lambda       -0.2768278E-04
   maximum displ.:     0.1110699 α      in ANC's #1, #3, #2, ...

........................................................................
.............................. CYCLE   52 ..............................
........................................................................
   1    -67.8261908 -0.678262E+02  0.357E-02    2.35       0.0  T
   2    -67.8261910 -0.150394E-06  0.210E-02    2.35       1.0  T
   3    -67.8261908  0.186849E-06  0.251E-03    2.35       6.4  T
   4    -67.8261910 -0.250170E-06  0.606E-04    2.35      26.4  T
   5    -67.8261910 -0.198645E-08  0.342E-04    2.35      46.9  T
     SCC iter.                  ...        0 min,  0.036 sec
     gradient                   ...        0 min,  0.016 sec
 * total energy  :   -66.9082929 Eh     change       -0.3699207E-04 Eh
   gradient norm :     0.0013268 Eh/α   predicted    -0.1396408E-04 ( -62.25%)
   displ. norm   :     0.1462269 α      lambda       -0.2848311E-04
   maximum displ.:     0.1139369 α      in ANC's #1, #3, #2, ...

........................................................................
.............................. CYCLE   53 ..............................
........................................................................
   1    -67.8261894 -0.678262E+02  0.376E-02    2.36       0.0  T
   2    -67.8261895 -0.110229E-06  0.221E-02    2.36       1.0  T
   3    -67.8261894  0.934210E-07  0.211E-03    2.36       7.6  T
   4    -67.8261895 -0.148924E-06  0.615E-04    2.36      26.0  T
   5    -67.8261895 -0.337494E-09  0.295E-04    2.36      54.4  T
     SCC iter.                  ...        0 min,  0.036 sec
     gradient                   ...        0 min,  0.016 sec
 * total energy  :   -66.9083308 Eh     change       -0.3789842E-04 Eh
   gradient norm :     0.0011272 Eh/α   predicted    -0.1437822E-04 ( -62.06%)
   displ. norm   :     0.1455021 α      lambda       -0.2511744E-04
   maximum displ.:     0.1141105 α      in ANC's #1, #3, #2, ...

........................................................................
.............................. CYCLE   54 ..............................
........................................................................
   1    -67.8258912 -0.678259E+02  0.376E-02    2.36       0.0  T
   2    -67.8258914 -0.117501E-06  0.221E-02    2.36       1.0  T
   3    -67.8258912  0.133109E-06  0.231E-03    2.36       6.9  T
   4    -67.8258914 -0.192403E-06  0.563E-04    2.36      28.5  T
   5    -67.8258914 -0.702428E-09  0.278E-04    2.36      57.6  T
     SCC iter.                  ...        0 min,  0.036 sec
     gradient                   ...        0 min,  0.016 sec
 * total energy  :   -66.9083640 Eh     change       -0.3317451E-04 Eh
   gradient norm :     0.0006657 Eh/α   predicted    -0.1267811E-04 ( -61.78%)
   displ. norm   :     0.1274410 α      lambda       -0.1901674E-04
   maximum displ.:     0.1017092 α      in ANC's #1, #3, #7, ...

........................................................................
.............................. CYCLE   55 ..............................
........................................................................
   1    -67.8260728 -0.678261E+02  0.330E-02    2.36       0.0  T
   2    -67.8260729 -0.889410E-07  0.193E-02    2.36       1.0  T
   3    -67.8260728  0.973732E-07  0.212E-03    2.36       7.6  T
   4    -67.8260729 -0.147261E-06  0.518E-04    2.36      30.9  T
   5    -67.8260729 -0.171767E-09  0.251E-04    2.36      63.8  T
     SCC iter.                  ...        0 min,  0.035 sec
     gradient                   ...        0 min,  0.018 sec
 * total energy  :   -66.9083893 Eh     change       -0.2537870E-04 Eh
   gradient norm :     0.0005356 Eh/α   predicted    -0.9578285E-05 ( -62.26%)
   displ. norm   :     0.1024776 α      lambda       -0.1418215E-04
   maximum displ.:     0.0847242 α      in ANC's #1, #3, #7, ...

........................................................................
.............................. CYCLE   56 ..............................
........................................................................
   1    -67.8261019 -0.678261E+02  0.263E-02    2.36       0.0  T
   2    -67.8261019 -0.628661E-07  0.154E-02    2.36       1.0  T
   3    -67.8261019  0.634605E-07  0.177E-03    2.36       9.0  T
   4    -67.8261020 -0.100324E-06  0.489E-04    2.36      32.8  T
   5    -67.8261020 -0.904095E-10  0.215E-04    2.36      74.6  T
     SCC iter.                  ...        0 min,  0.036 sec
     gradient                   ...        0 min,  0.016 sec
 * total energy  :   -66.9084088 Eh     change       -0.1941665E-04 Eh
   gradient norm :     0.0004978 Eh/α   predicted    -0.7124836E-05 ( -63.31%)
   displ. norm   :     0.0844596 α      lambda       -0.1161831E-04
   maximum displ.:     0.0712745 α      in ANC's #1, #7, #3, ...

........................................................................
.............................. CYCLE   57 ..............................
........................................................................
   1    -67.8262086 -0.678262E+02  0.216E-02    2.37       0.0  T
   2    -67.8262086 -0.453005E-07  0.126E-02    2.37       1.3  T
   3    -67.8262086  0.336482E-07  0.147E-03    2.37      10.9  T
   4    -67.8262086 -0.623418E-07  0.477E-04    2.37      33.5  T
   5    -67.8262086  0.311502E-10  0.152E-04    2.37     105.6  T
     SCC iter.                  ...        0 min,  0.037 sec
     gradient                   ...        0 min,  0.016 sec
 * total energy  :   -66.9084251 Eh     change       -0.1631267E-04 Eh
   gradient norm :     0.0005351 Eh/α   predicted    -0.5828167E-05 ( -64.27%)
   displ. norm   :     0.0812750 α      lambda       -0.1145810E-04
   maximum displ.:     0.0695019 α      in ANC's #1, #7, #3, ...

........................................................................
.............................. CYCLE   58 ..............................
........................................................................
   1    -67.8263265 -0.678263E+02  0.204E-02    2.37       0.0  T
   2    -67.8263266 -0.458258E-07  0.120E-02    2.37       1.3  T
   3    -67.8263265  0.146501E-07  0.128E-03    2.37      12.5  T
   4    -67.8263266 -0.435003E-07  0.472E-04    2.37      34.0  T
   5    -67.8263266 -0.143558E-09  0.142E-04    2.37     112.5  T
     SCC iter.                  ...        0 min,  0.035 sec
     gradient                   ...        0 min,  0.016 sec
 * total energy  :   -66.9084412 Eh     change       -0.1615426E-04 Eh
   gradient norm :     0.0005145 Eh/α   predicted    -0.5747030E-05 ( -64.42%)
   displ. norm   :     0.0850746 α      lambda       -0.1197334E-04
   maximum displ.:     0.0726295 α      in ANC's #1, #2, #7, ...

........................................................................
.............................. CYCLE   59 ..............................
........................................................................
   1    -67.8263474 -0.678263E+02  0.207E-02    2.37       0.0  T
   2    -67.8263475 -0.523757E-07  0.121E-02    2.37       1.3  T
   3    -67.8263474  0.118576E-07  0.132E-03    2.37      12.1  T
   4    -67.8263475 -0.461892E-07  0.489E-04    2.37      32.7  T
   5    -67.8263475 -0.197034E-09  0.126E-04    2.37     127.4  T
     SCC iter.                  ...        0 min,  0.035 sec
     gradient                   ...        0 min,  0.016 sec
 * total energy  :   -66.9084580 Eh     change       -0.1681377E-04 Eh
   gradient norm :     0.0005377 Eh/α   predicted    -0.6006749E-05 ( -64.27%)
   displ. norm   :     0.0926580 α      lambda       -0.1281366E-04
   maximum displ.:     0.0783197 α      in ANC's #1, #2, #8, ...

........................................................................
.............................. CYCLE   60 ..............................
........................................................................
   1    -67.8264072 -0.678264E+02  0.216E-02    2.37       0.0  T
   2    -67.8264073 -0.571574E-07  0.127E-02    2.37       1.3  T
   3    -67.8264073 -0.117279E-07  0.108E-03    2.37      14.8  T
   4    -67.8264073 -0.245762E-07  0.504E-04    2.37      31.8  T
   5    -67.8264073 -0.552262E-09  0.111E-04    2.37     144.6  T
     SCC iter.                  ...        0 min,  0.035 sec
     gradient                   ...        0 min,  0.016 sec
 * total energy  :   -66.9084760 Eh     change       -0.1791576E-04 Eh
   gradient norm :     0.0004610 Eh/α   predicted    -0.6432142E-05 ( -64.10%)
   displ. norm   :     0.1005446 α      lambda       -0.1330772E-04
   maximum displ.:     0.0836995 α      in ANC's #1, #2, #8, ...

........................................................................
.............................. CYCLE   61 ..............................
........................................................................
   1    -67.8264596 -0.678265E+02  0.227E-02    2.37       0.0  T
   2    -67.8264597 -0.608516E-07  0.133E-02    2.37       1.2  T
   3    -67.8264597 -0.133630E-07  0.110E-03    2.37      14.6  T
   4    -67.8264597 -0.260101E-07  0.518E-04    2.37      30.9  T
   5    -67.8264597 -0.557492E-09  0.110E-04    2.37     144.9  T
     SCC iter.                  ...        0 min,  0.035 sec
     gradient                   ...        0 min,  0.016 sec
 * total energy  :   -66.9084948 Eh     change       -0.1883438E-04 Eh
   gradient norm :     0.0004619 Eh/α   predicted    -0.6685288E-05 ( -64.50%)
   displ. norm   :     0.1118496 α      lambda       -0.1439049E-04
   maximum displ.:     0.0912947 α      in ANC's #1, #2, #8, ...

........................................................................
.............................. CYCLE   62 ..............................
........................................................................
   1    -67.8264546 -0.678265E+02  0.247E-02    2.37       0.0  T
   2    -67.8264547 -0.634804E-07  0.145E-02    2.37       1.1  T
   3    -67.8264547 -0.250307E-07  0.973E-04    2.37      16.5  T
   4    -67.8264547 -0.149200E-07  0.534E-04    2.37      30.0  T
     SCC iter.                  ...        0 min,  0.029 sec
     gradient                   ...        0 min,  0.016 sec
 * total energy  :   -66.9085152 Eh     change       -0.2038152E-04 Eh
   gradient norm :     0.0004341 Eh/α   predicted    -0.7236354E-05 ( -64.50%)
   displ. norm   :     0.1271690 α      lambda       -0.1556400E-04
   maximum displ.:     0.1017775 α      in ANC's #1, #2, #8, ...

........................................................................
.............................. CYCLE   63 ..............................
........................................................................
   1    -67.8264862 -0.678265E+02  0.276E-02    2.37       0.0  T
   2    -67.8264863 -0.686597E-07  0.162E-02    2.37       1.0  T
   3    -67.8264863 -0.255415E-07  0.105E-03    2.37      15.2  T
   4    -67.8264863 -0.169932E-07  0.561E-04    2.37      28.6  T
   5    -67.8264863 -0.913388E-09  0.108E-04    2.37     148.4  T
     SCC iter.                  ...        0 min,  0.035 sec
     gradient                   ...        0 min,  0.016 sec
 * total energy  :   -66.9085370 Eh     change       -0.2186030E-04 Eh
   gradient norm :     0.0004130 Eh/α   predicted    -0.7838517E-05 ( -64.14%)
   displ. norm   :     0.1407172 α      lambda       -0.1587066E-04
   maximum displ.:     0.1110401 α      in ANC's #1, #2, #7, ...

........................................................................
.............................. CYCLE   64 ..............................
........................................................................
   1    -67.8264680 -0.678265E+02  0.305E-02    2.37       0.0  T
   2    -67.8264680 -0.706622E-07  0.179E-02    2.37       1.0  T
   3    -67.8264681 -0.241880E-07  0.105E-03    2.37      15.2  T
   4    -67.8264681 -0.176174E-07  0.560E-04    2.37      28.6  T
   5    -67.8264681 -0.849468E-09  0.136E-04    2.37     118.0  T
     SCC iter.                  ...        0 min,  0.035 sec
     gradient                   ...        0 min,  0.016 sec
 * total energy  :   -66.9085585 Eh     change       -0.2149223E-04 Eh
   gradient norm :     0.0004509 Eh/α   predicted    -0.8005562E-05 ( -62.75%)
   displ. norm   :     0.1356502 α      lambda       -0.1342434E-04
   maximum displ.:     0.1070085 α      in ANC's #1, #2, #7, ...

........................................................................
.............................. CYCLE   65 ..............................
........................................................................
   1    -67.8264651 -0.678265E+02  0.290E-02    2.37       0.0  T
   2    -67.8264651 -0.560091E-07  0.171E-02    2.37       1.0  T
   3    -67.8264651 -0.156383E-07  0.951E-04    2.37      16.8  T
   4    -67.8264651 -0.144089E-07  0.489E-04    2.37      32.7  T
     SCC iter.                  ...        0 min,  0.029 sec
     gradient                   ...        0 min,  0.016 sec
 * total energy  :   -66.9085768 Eh     change       -0.1830740E-04 Eh
   gradient norm :     0.0004415 Eh/α   predicted    -0.6768181E-05 ( -63.03%)
   displ. norm   :     0.1242112 α      lambda       -0.1092454E-04
   maximum displ.:     0.0983075 α      in ANC's #1, #2, #7, ...

........................................................................
.............................. CYCLE   66 ..............................
........................................................................
   1    -67.8264719 -0.678265E+02  0.264E-02    2.37       0.0  T
   2    -67.8264720 -0.422216E-07  0.156E-02    2.37       1.0  T
   3    -67.8264720 -0.426741E-08  0.932E-04    2.37      17.2  T
   4    -67.8264720 -0.175142E-07  0.429E-04    2.37      37.3  T
     SCC iter.                  ...        0 min,  0.029 sec
     gradient                   ...        0 min,  0.016 sec
 * total energy  :   -66.9085919 Eh     change       -0.1506333E-04 Eh
   gradient norm :     0.0003660 Eh/α   predicted    -0.5501369E-05 ( -63.48%)
[...]
O26-C7-C12=124.38              Li32-C7-C5=149.96              Li32-C7-C12= 91.28             Li32-C7-O26= 33.14             
 
 selected dihedral angles (degree)
 ---------------------------------
C3-C2-C1-C6=  0.32            C3-C2-C1-H9=179.84            C33-C2-C1-C6=181.50           C33-C2-C1-H9=  1.02           
C4-C3-C2-C1=359.94            C4-C3-C2-C33=178.80           H10-C3-C2-C1=180.54           H10-C3-C2-C33=359.40          
C5-C4-C3-C2=  0.07            C5-C4-C3-H10=179.45           H11-C4-C3-C2=181.88           H11-C4-C3-H10=  1.26          
C6-C5-C4-C3=359.67            C6-C5-C4-H11=177.85           C7-C5-C4-C3=182.58            C7-C5-C4-H11=  0.76           
C5-C6-C1-C2=359.41            C5-C6-C1-H9=179.90            H8-C6-C1-C2=179.21            H8-C6-C1-H9=359.70            
C1-C6-C5-C4=  0.59            C1-C6-C5-C7=177.79            H8-C6-C5-C4=180.79            H8-C6-C5-C7=357.99            
C12-C7-C5-C4=326.54           C12-C7-C5-C6=149.44           O26-C7-C5-C4=146.37           O26-C7-C5-C6=329.26           
Li32-C7-C5-C4=142.81          Li32-C7-C5-C6=325.70          
           -------------------------------------------------
          |                Final Singlepoint                |
           -------------------------------------------------

          ...................................................
          :                      SETUP                      :
          :.................................................:
          :  # basis functions                 111          :
          :  # atomic orbitals                 111          :
          :  # shells                           63          :
          :  # electrons                       118          :
          :  max. iterations                   250          :
          :  Hamiltonian                  GFN2-xTB          :
          :  restarted?                      false          :
          :  GBSA solvation                   true          :
          :  PC potential                    false          :
          :  electronic temp.          300.0000000     K    :
          :  accuracy                    1.0000000          :
          :  -> integral cutoff          0.2500000E+02      :
          :  -> integral neglect         0.1000000E-07      :
          :  -> SCF convergence          0.1000000E-05 Eh   :
          :  -> wf. convergence          0.1000000E-03 e    :
          :  Broyden damping             0.4000000          :
          ...................................................

 iter      E             dE          RMSdq      gap      omega  full diag
   1    -67.8265062 -0.678265E+02  0.661E-05    2.37       0.0  T
   2    -67.8265062 -0.202363E-10  0.426E-05    2.37     375.5  T
   3    -67.8265062 -0.892442E-11  0.274E-05    2.37     584.0  T

   *** convergence criteria satisfied after 3 iterations ***

         #    Occupation            Energy/Eh            Energy/eV
      -------------------------------------------------------------
         1        2.0000           -0.7477691             -20.3478
       ...           ...                  ...                  ...
        53        2.0000           -0.4213107             -11.4644
        54        2.0000           -0.4200524             -11.4302
        55        2.0000           -0.4118687             -11.2075
        56        2.0000           -0.4086093             -11.1188
        57        2.0000           -0.3849803             -10.4758
        58        2.0000           -0.3790910             -10.3156
        59        2.0000           -0.3787352             -10.3059 (HOMO)
        60                         -0.2918006              -7.9403 (LUMO)
        61                         -0.2643596              -7.1936
        62                         -0.2370243              -6.4498
        63                         -0.2236802              -6.0866
        64                         -0.2167965              -5.8993
       ...                                ...                  ...
       111                          0.6830325              18.5863
      -------------------------------------------------------------
                  HL-Gap            0.0869346 Eh            2.3656 eV
             Fermi-level           -0.3352679 Eh           -9.1231 eV

 SCC (total)                   0 d,  0 h,  0 min,  0.052 sec
 SCC setup                      ...        0 min,  0.002 sec (  3.628%)
 Dispersion                     ...        0 min,  0.002 sec (  3.131%)
 classical contributions        ...        0 min,  0.000 sec (  0.185%)
 integral evaluation            ...        0 min,  0.008 sec ( 16.350%)
 iterations                     ...        0 min,  0.023 sec ( 44.309%)
 molecular gradient             ...        0 min,  0.016 sec ( 31.113%)
 printout                       ...        0 min,  0.001 sec (  1.153%)

         :::::::::::::::::::::::::::::::::::::::::::::::::::::
         ::                     SUMMARY                     ::
         :::::::::::::::::::::::::::::::::::::::::::::::::::::
         :: total energy             -66.908607861387 Eh    ::
         :: total w/o Gsasa/hb       -66.873767009656 Eh    ::
         :: gradient norm              0.000237500465 Eh/a0 ::
         :: HOMO-LUMO gap              2.365611116050 eV    ::
         ::.................................................::
         :: SCC energy               -67.826506169565 Eh    ::
         :: -> isotropic ES            0.157781538209 Eh    ::
         :: -> anisotropic ES          0.005154833561 Eh    ::
         :: -> anisotropic XC          0.018299162291 Eh    ::
         :: -> dispersion             -0.039708567205 Eh    ::
         :: -> Gsolv                  -0.046513432691 Eh    ::
         ::    -> Gelec               -0.011672580959 Eh    ::
         ::    -> Gsasa               -0.038218842676 Eh    ::
         ::    -> Ghb                 -0.001946824500 Eh    ::
         ::    -> Gshift               0.005324815444 Eh    ::
         :: repulsion energy           0.918220421160 Eh    ::
         :: add. restraining           0.000000000000 Eh    ::
         :: total charge              -0.000000000000 e     ::
         :::::::::::::::::::::::::::::::::::::::::::::::::::::

           -------------------------------------------------
          |                Property Printout                |
           -------------------------------------------------

    * Orbital Energies and Occupations

         #    Occupation            Energy/Eh            Energy/eV
      -------------------------------------------------------------
         1        2.0000           -0.7477691             -20.3478
       ...           ...                  ...                  ...
        47        2.0000           -0.4505923             -12.2612
        48        2.0000           -0.4490556             -12.2194
        49        2.0000           -0.4380508             -11.9200
        50        2.0000           -0.4334576             -11.7950
        51        2.0000           -0.4317204             -11.7477
        52        2.0000           -0.4220586             -11.4848
        53        2.0000           -0.4213107             -11.4644
        54        2.0000           -0.4200524             -11.4302
        55        2.0000           -0.4118687             -11.2075
        56        2.0000           -0.4086093             -11.1188
        57        2.0000           -0.3849803             -10.4758
        58        2.0000           -0.3790910             -10.3156
        59        2.0000           -0.3787352             -10.3059 (HOMO)
        60                         -0.2918006              -7.9403 (LUMO)
        61                         -0.2643596              -7.1936
        62                         -0.2370243              -6.4498
        63                         -0.2236802              -6.0866
        64                         -0.2167965              -5.8993
        65                         -0.1968001              -5.3552
        66                         -0.1862179              -5.0672
        67                         -0.1433659              -3.9012
        68                         -0.0899408              -2.4474
        69                         -0.0817742              -2.2252
        70                         -0.0215088              -0.5853
       ...                                ...                  ...
       111                          0.6830325              18.5863
      -------------------------------------------------------------
                  HL-Gap            0.0869346 Eh            2.3656 eV
             Fermi-level           -0.3352679 Eh           -9.1231 eV

     #   Z          covCN         q      C6AA      α(0)
     1   6 C        2.918    -0.026    28.650     8.777
     2   6 C        2.972    -0.021    28.518     8.760
     3   6 C        2.922    -0.023    28.571     8.765
     4   6 C        2.920    -0.031    28.785     8.798
     5   6 C        2.973     0.002    27.980     8.677
     6   6 C        2.924    -0.024    28.596     8.769
     7   6 C        3.141     0.196    23.623     7.954
     8   1 H        0.926     0.068     2.111     2.272
     9   1 H        0.926     0.071     2.080     2.255
    10   1 H        0.926     0.069     2.099     2.266
    11   1 H        0.926     0.059     2.215     2.327
    12   6 C        2.929    -0.153    31.935     9.268
    13   6 C        3.133     0.199    23.589     7.951
    14   6 C        2.973    -0.012    28.308     8.727
    15   6 C        2.919    -0.071    29.779     8.949
    16   6 C        2.861     0.144    24.873     8.175
    17   6 C        2.920    -0.057    29.413     8.894
    18   6 C        2.917    -0.034    28.848     8.808
    19   6 C        2.924    -0.039    28.958     8.825
    20   1 H        0.926     0.054     2.268     2.355
    21   1 H        0.926     0.047     2.353     2.399
    22   1 H        0.926     0.061     2.186     2.312
    23   1 H        0.926     0.055     2.257     2.349
    24   1 H        0.926     0.050     2.317     2.381
    25   8 O        1.519    -0.504    23.095     6.482
    26   8 O        1.519    -0.507    23.153     6.490
    27   8 O        1.705    -0.284    18.707     5.840
    28   6 C        3.641     0.020    20.586     6.524
    29   1 H        0.924     0.050     2.314     2.379
    30   1 H        0.925     0.079     1.992     2.207
    31   1 H        0.924     0.051     2.312     2.378
    32   3 Li       1.971     0.631    31.745    17.041
    33   6 C        2.727     0.350    21.050     7.511
    34   8 O        1.704    -0.265    18.389     5.790
    35   8 O        0.856    -0.457    22.851     6.409
    36   6 C        3.652     0.014    20.644     6.525
    37   1 H        0.924     0.073     2.058     2.243
    38   1 H        0.925     0.092     1.864     2.135
    39   1 H        0.924     0.072     2.063     2.246

 Mol. C6AA /au·bohr⁶  :      20123.419620
 Mol. C8AA /au·bohr⁸  :     510991.153749
 Mol. α(0) /au        :        233.210454


Wiberg/Mayer (AO) data.
largest (>0.10) Wiberg bond orders for each atom

 ---------------------------------------------------------------------------
     #   Z sym  total        # sym  WBO       # sym  WBO       # sym  WBO
 ---------------------------------------------------------------------------
     1   6 C    3.987 --     6 C    1.467     2 C    1.378     9 H    0.964
                             4 C    0.102
     2   6 C    3.981 --     1 C    1.378     3 C    1.378    33 C    1.010
     3   6 C    3.987 --     4 C    1.466     2 C    1.378    10 H    0.964
                             6 C    0.102
     4   6 C    3.989 --     3 C    1.466     5 C    1.383    11 H    0.964
                             1 C    0.102
     5   6 C    3.986 --     4 C    1.383     6 C    1.383     7 C    1.008
     6   6 C    3.987 --     1 C    1.467     5 C    1.383     8 H    0.964
                             3 C    0.102
     7   6 C    3.940 --    26 O    1.435    12 C    1.358     5 C    1.008
     8   1 H    0.995 --     6 C    0.964
     9   1 H    0.994 --     1 C    0.964
    10   1 H    0.995 --     3 C    0.964
    11   1 H    0.996 --     4 C    0.964
    12   6 C    3.957 --     7 C    1.358    13 C    1.330    24 H    0.961
                            26 O    0.107
    13   6 C    3.935 --    25 O    1.446    12 C    1.330    14 C    1.018
    14   6 C    3.987 --    19 C    1.395    15 C    1.381    13 C    1.018
                            17 C    0.102
    15   6 C    3.987 --    16 C    1.390    14 C    1.381    21 H    0.960
    16   6 C    3.937 --    15 C    1.390    17 C    1.340    27 O    1.064
    17   6 C    3.980 --    18 C    1.465    16 C    1.340    22 H    0.967
                            14 C    0.102
    18   6 C    3.990 --    17 C    1.465    19 C    1.429    23 H    0.968
    19   6 C    3.989 --    18 C    1.429    14 C    1.395    20 H    0.966
    20   1 H    0.997 --    19 C    0.966
    21   1 H    0.998 --    15 C    0.960
    22   1 H    0.996 --    17 C    0.967
    23   1 H    0.996 --    18 C    0.968
    24   1 H    0.997 --    12 C    0.961
    25   8 O    2.056 --    13 C    1.446    32 Li   0.328
    26   8 O    2.051 --     7 C    1.435    32 Li   0.329    12 C    0.107
    27   8 O    2.223 --    16 C    1.064    28 C    0.976
    28   6 C    3.936 --    30 H    0.978    29 H    0.977    31 H    0.976
                            27 O    0.976
    29   1 H    0.997 --    28 C    0.977
    30   1 H    0.993 --    28 C    0.978
    31   1 H    0.997 --    28 C    0.976
    32   3 Li   0.692 --    26 O    0.329    25 O    0.328
    33   6 C    3.914 --    35 O    1.691    34 O    1.137     2 C    1.010
    34   8 O    2.308 --    33 C    1.137    36 C    0.948    35 O    0.168
    35   8 O    1.991 --    33 C    1.691    34 O    0.168
    36   6 C    3.912 --    38 H    0.978    37 H    0.976    39 H    0.975
                            34 O    0.948
    37   1 H    0.994 --    36 C    0.976
    38   1 H    0.991 --    36 C    0.978
    39   1 H    0.994 --    36 C    0.975
 ---------------------------------------------------------------------------

Topologies differ in total number of bonds
Writing topology from bond orders to xtbtopo.mol

molecular dipole:
                 x           y           z       tot (Debye)
 q only:        0.017       0.983      -0.025
   full:       -0.166       1.125      -0.121       2.906
molecular quadrupole (traceless):
                xx          xy          yy          xz          yz          zz
 q only:        5.206     -14.178       0.587      -4.350      -2.569      -5.793
  q+dip:        4.838     -14.281       3.348      -4.504      -2.542      -8.186
   full:        1.081     -13.602       1.408      -4.758      -3.203      -2.490

           -------------------------------------------------
          |                Geometry Summary                 |
           -------------------------------------------------

      molecular mass/u    :      318.2494186
   center of mass at/Å    :       -1.2241917      -0.9965303      -0.0611670
  moments of inertia/u·Å² :        0.1055142E+04   0.5482218E+04   0.6431712E+04
rotational constants/cm⁻¹ :        0.1597665E-01   0.3074966E-02   0.2621018E-02

 * 38 selected distances

     #   Z          #   Z                                           value/Å
     1   6 C        2   6 C                                       1.3942366
     2   6 C        3   6 C                                       1.3945404
     3   6 C        4   6 C                                       1.3799888
     4   6 C        5   6 C                                       1.3941933
     1   6 C        6   6 C                                       1.3799215
     5   6 C        6   6 C                                       1.3949957
     6   6 C        8   1 H                                       1.0794476
     1   6 C        9   1 H                                       1.0780896
     3   6 C       10   1 H                                       1.0796464
     4   6 C       11   1 H                                       1.0781256
     7   6 C       12   6 C                                       1.3960766
    12   6 C       13   6 C                                       1.4018540
    14   6 C       15   6 C                                       1.3945158
    15   6 C       16   6 C                                       1.3887866
    16   6 C       17   6 C                                       1.3974150
    17   6 C       18   6 C                                       1.3797463
    14   6 C       19   6 C                                       1.3914568
    18   6 C       19   6 C                                       1.3843959
    19   6 C       20   1 H                                       1.0788829
    15   6 C       21   1 H                                       1.0769531
    17   6 C       22   1 H                                       1.0783884
    18   6 C       23   1 H                                       1.0792596
    12   6 C       24   1 H                                       1.0759704 (min)
    13   6 C       25   8 O                                       1.2654232
     7   6 C       26   8 O                                       1.2666634
    16   6 C       27   8 O                                       1.3624100
    27   8 O       28   6 C                                       1.4131442
    28   6 C       29   1 H                                       1.0939485
    28   6 C       30   1 H                                       1.0885367
    28   6 C       31   1 H                                       1.0938965
    25   8 O       32   3 Li                                      1.7391513
    26   8 O       32   3 Li                                      1.7401539 (max)
    33   6 C       34   8 O                                       1.3360481
    33   6 C       35   8 O                                       1.2136302
    34   8 O       36   6 C                                       1.4257774
    36   6 C       37   1 H                                       1.0916288
    36   6 C       38   1 H                                       1.0864254
    36   6 C       39   1 H                                       1.0916876

 * 4 distinct bonds (by element types)

   Z      Z             #   av. dist./Å        max./Å        min./Å
   1 H    6 C          15     1.0833925     1.0939485     1.0759704
   6 C    6 C          14     1.3908660     1.4018540     1.3797463
   3 Li   8 O           2     1.7396526     1.7401539     1.7391513
   6 C    8 O           7     1.3261567     1.4257774     1.2136302


optimized geometry written to: xtbopt.xyz


           -------------------------------------------------
          | TOTAL ENERGY              -66.908607861387 Eh   |
          | GRADIENT NORM               0.000237500465 Eh/α |
          | HOMO-LUMO GAP               2.365611116050 eV   |
           -------------------------------------------------
########################################################################
[WARNING] Runtime exception occurred
-1- restart_readRestart: Dimension missmatch in restart file.
########################################################################

------------------------------------------------------------------------
 * finished run on 2022/04/13 at 10:31:39.898     
------------------------------------------------------------------------
 total:
 * wall-time:     0 d,  0 h,  0 min,  5.775 sec
 *  cpu-time:     0 d,  0 h,  0 min, 20.667 sec
 * ratio c/w:     3.578 speedup
 SCF:
 * wall-time:     0 d,  0 h,  0 min,  0.121 sec
 *  cpu-time:     0 d,  0 h,  0 min,  0.481 sec
 * ratio c/w:     3.986 speedup
 ANC optimizer:
 * wall-time:     0 d,  0 h,  0 min,  4.892 sec
 *  cpu-time:     0 d,  0 h,  0 min, 19.271 sec
 * ratio c/w:     3.939 speedup

