39
 energy: -66.867922612135 gnorm: 0.162468416741 xtb: 6.4.1 (afa7bdf)
C        -5.26977213080000   -0.07517735400000   -0.00799632350000
C        -5.41055220150000   -1.46893188320000    0.00335055780000
C        -4.25146799530000   -2.26526228710000    0.01282451750000
C        -2.97730166410000   -1.67888775860000    0.01053812210000
C        -2.83207892610000   -0.27624387650000   -0.00065397770000
C        -4.00417356360000    0.50995372530000   -0.00960311010000
C        -1.50078623360000    0.41731363420000   -0.00328193100000
H        -3.94985554260000    1.59146324880000   -0.01820952170000
H        -6.13925311060000    0.57055329480000   -0.01522679760000
H        -4.32905575030000   -3.34547883100000    0.02165666930000
H        -2.12452380500000   -2.33891273030000    0.01800110840000
C        -0.17753177770000   -0.29001655250000   -0.00052527710000
C         1.03284598470000    0.34001147220000   -0.00079231350000
C         2.35511449870000   -0.38660561460000    0.00002841250000
C         2.49339981510000   -1.79781880660000    0.00014998380000
C         3.77661296450000   -2.39762303090000    0.00041587650000
C         4.91394627920000   -1.58725252480000    0.00061808200000
C         4.79455202320000   -0.20293833240000    0.00054272010000
C         3.53514541360000    0.39073229210000    0.00022957380000
H         3.49670619570000    1.47224871200000    0.00007409290000
H         1.62765952140000   -2.43797965090000   -0.00013728350000
H         5.90029530420000   -2.03471697640000    0.00077905120000
H         5.68283581390000    0.41606722650000    0.00064986600000
H        -0.20281495800000   -1.36522372890000    0.00092780510000
O         1.11247215840000    1.69501523330000   -0.00184134140000
O        -1.50988197240000    1.63571525360000   -0.00941150840000
O         3.96886879910000   -3.74209085680000    0.00038019810000
C         2.98765121910000   -4.70876925520000    0.00011983560000
H         2.36075569730000   -4.61867813470000    0.91202912950000
H         3.47061081930000   -5.70798638300000    0.00006923330000
H         2.36101473970000   -4.61848716290000   -0.91195411230000
Li       -0.04376380510000    3.12861529600000   -0.00030412740000
C        -6.76587640070000   -2.07611487230000    0.00535092800000
O        -7.86245945850000   -1.27314452600000   -0.01165097210000
O        -6.89294895750000   -3.29390680940000    0.02109107060000
C        -9.16277027130000   -1.73189479860000   -0.00569572720000
H        -9.35166446520000   -2.36184511600000   -0.90097560600000
H        -9.85453026380000   -0.86440867450000   -0.02839820230000
H        -9.35756402730000   -2.31921793890000    0.91683120490000
39
 energy: -66.890609926995 gnorm: 0.088167947963 xtb: 6.4.1 (afa7bdf)
C        -5.24942753350956   -0.07020868436716   -0.00772536955639
C        -5.40667061827133   -1.45727758918829    0.00275537508236
C        -4.25397309969634   -2.25030905614222    0.01210677566365
C        -2.98635640340442   -1.67464783282059    0.01011657528362
C        -2.81690956250639   -0.28407826612050   -0.00081629456593
C        -3.98381058664268    0.49999372157915   -0.00925902120741
C        -1.48300424522293    0.42413513260965   -0.00354618051039
H        -3.91200666906887    1.57845514725477   -0.01796175268633
H        -6.12076199297216    0.56844038808382   -0.01511472537699
H        -4.34425788604189   -3.32770981455252    0.02127532903431
H        -2.13360250132307   -2.33299425756861    0.01787050565080
C        -0.20540449949777   -0.29152269750020   -0.00077986326637
C         1.02425037461510    0.33920368481851   -0.00077922238716
C         2.34419779905811   -0.38724912842440    0.00004872781443
C         2.48844866011965   -1.78552221733805    0.00013240597272
C         3.75934861918304   -2.38419283495550    0.00041157143908
C         4.89828604935914   -1.58177292375832    0.00062113325389
C         4.76997546785481   -0.20561882413581    0.00052790839844
C         3.51493618490535    0.38456302856038    0.00025006014104
H         3.45698265918097    1.46320716040357    0.00005741893690
H         1.62192767171555   -2.42507703834391   -0.00012429008583
H         5.87870145135204   -2.03831070482182    0.00080268254171
H         5.65774369177676    0.41121951851955    0.00063029455008
H        -0.23073399187273   -1.36738880694132    0.00083710948525
O         1.12096589091391    1.64935677537177   -0.00140083796005
O        -1.50835154050393    1.66738432547100   -0.00819256217556
O         3.98761917525019   -3.72719844267098    0.00043862056006
C         2.97447941901889   -4.68533555039089    0.00019375854461
H         2.34436932437710   -4.61553054285236    0.89989403108052
H         3.46786671283668   -5.66496268828550    0.00017489692385
H         2.34462953070627   -4.61537185738395   -0.89967986384400
Li       -0.05244176054629    3.01985177874585   -0.00152857958812
C        -6.75363844833391   -2.08785465766620    0.00519683456397
O        -7.81101578130608   -1.24746904246752   -0.01133955919327
O        -6.90472886890599   -3.29840683962038    0.02137556824095
C        -9.12704062820376   -1.73576713316882   -0.00544221770536
H        -9.33167634771826   -2.36619832233837   -0.88328338525944
H        -9.80091659695118   -0.87114569737212   -0.02805430318171
H        -9.33813915362402   -2.32461428842173    0.89931035158807
39
 energy: -66.902123521144 gnorm: 0.019620944775 xtb: 6.4.1 (afa7bdf)
C        -5.22617955379541   -0.05890677034327   -0.00782354318238
C        -5.39760297082135   -1.44208688670651    0.00218307293971
C        -4.24864437113072   -2.23571126169803    0.01131097853951
C        -2.98445356072602   -1.67280016356420    0.00948015613403
C        -2.79564100350600   -0.29046311571053   -0.00103072570810
C        -3.95881676068587    0.49461045267511   -0.00934987867252
C        -1.45360026303745    0.41881684908865   -0.00295000924589
H        -3.86394702087468    1.57035566682600   -0.01748085477660
H        -6.09987326179493    0.57406861515266   -0.01475201255290
H        -4.35664839654153   -3.31082574118447    0.02050115950505
H        -2.13135669156864   -2.33171197674660    0.01751977043883
C        -0.23669963014325   -0.29227507609867   -0.00109280802664
C         1.01396490977760    0.34880595722916   -0.00097055946559
C         2.32781170087211   -0.39148810024702   -0.00005314520455
C         2.47250706829243   -1.78185204367680    0.00014424958501
C         3.73215811855460   -2.37449544848117    0.00045869180531
C         4.87649608746926   -1.57553055435061    0.00063343573534
C         4.74307806104495   -0.20451368348480    0.00048437450435
C         3.49048940750901    0.38081594865641    0.00014965644606
H         3.40927126848851    1.45686361738239   -0.00003096150270
H         1.60264361569255   -2.41861206053359   -0.00008076738940
H         5.84844688808913   -2.04538156091895    0.00084840444850
H         5.63000621489593    0.41202790692236    0.00058091641051
H        -0.25902521830252   -1.36771248936195    0.00061075200345
O         1.11147570186990    1.60660771068374   -0.00147123483357
O        -1.49697562170867    1.68426142919950   -0.00638346899024
O         3.99773055610580   -3.71618809432199    0.00057398741008
C         2.95429250166150   -4.66672177133964    0.00036155674782
H         2.32944895729754   -4.59363122659422    0.89300920267155
H         3.46000551880263   -5.63071785560501    0.00039496140877
H         2.32971607661723   -4.59354680997268   -0.89246594692000
Li       -0.11790101509134    2.86439917774771   -0.00277640592832
C        -6.73815029728924   -2.09455677933195    0.00574066766788
O        -7.75699075841184   -1.22022848394361   -0.01053661404043
O        -6.90793772251645   -3.29535403636257    0.02161396375122
C        -9.08872999906833   -1.73832684423857   -0.00525902690015
H        -9.27960478844662   -2.36776277997112   -0.87529774926531
H        -9.74357710279386   -0.87115667772889   -0.02801669289397
H        -9.28732667868590   -2.32700011724629    0.89122235354627
39
 energy: -66.904368444506 gnorm: 0.015354550832 xtb: 6.4.1 (afa7bdf)
C        -5.20752846721738   -0.05238404584849   -0.00767140030569
C        -5.37604705923478   -1.43639125415219    0.00213222839638
C        -4.23357232714511   -2.23802271147914    0.01077055831203
C        -2.96879670676250   -1.68101591348002    0.00909564901672
C        -2.78627778242891   -0.29835982990239   -0.00091038041046
C        -3.94018485586925    0.49525342768417   -0.00912623279417
C        -1.45073509626987    0.40829453622698   -0.00258655076302
H        -3.82930647363811    1.56972666819603   -0.01704848838424
H        -6.07958629418002    0.58292000761992   -0.01431021137334
H        -4.35337050438579   -3.31169108938268    0.01949911118827
H        -2.11623017754331   -2.34091399324524    0.01685137560856
C        -0.24682999927680   -0.30487205205814   -0.00119660551084
C         1.00547809865315    0.34493628286203   -0.00107182997180
C         2.31195033220222   -0.40022516134790   -0.00019240830648
C         2.45207147090481   -1.78984695396776    0.00009441297433
C         3.71395799753501   -2.37238073074526    0.00051559733346
C         4.85718197016072   -1.56903536536450    0.00065680879585
C         4.72325418196549   -0.19793053250592    0.00043190117229
C         3.46793058768034    0.38096025694130    0.00003169862198
H         3.37213651847680    1.45591685562694   -0.00019203105546
H         1.57980978862518   -2.42362781443786   -0.00006731954518
H         5.82584355395428   -2.04338428772876    0.00092789406823
H         5.60704790482248    0.42241957691587    0.00052121470849
H        -0.26934089495705   -1.37992332280875    0.00020155104759
O         1.10208662340113    1.60249498950912   -0.00155641871665
O        -1.50328823528090    1.67765703987733   -0.00530028245715
O         3.98382573594028   -3.71143445448739    0.00076992458839
C         2.93135313521892   -4.65546697971548    0.00063131606332
H         2.30958364221531   -4.56921380103887    0.89458315449370
H         3.43257519443188   -5.62167738816600    0.00075292568581
H         2.30986762767520   -4.56928250775132   -0.89352231099144
Li       -0.17956021689765    2.79467692226471   -0.00388118510657
C        -6.71335312654088   -2.08778143577265    0.00579699431527
O        -7.72200699322175   -1.20707288394322   -0.00991189437973
O        -6.88861419129050   -3.28708007813863    0.02165610617048
C        -9.05379667845206   -1.73219225946687   -0.00511609523653
H        -9.22569876607102   -2.36377283516207   -0.87783888638125
H        -9.70745198346748   -0.86450194905671   -0.02794254350317
H        -9.23451756763197   -2.32370001077019    0.89352255883201
39
 energy: -66.905340910820 gnorm: 0.006785437279 xtb: 6.4.1 (afa7bdf)
C        -5.19105569032843   -0.05308039443543   -0.00726536366952
C        -5.35084357100630   -1.43814387492072    0.00218316087290
C        -4.21517537587578   -2.24866423622893    0.01006412002897
C        -2.94920356728589   -1.69570159278261    0.00854037318026
C        -2.77947509711378   -0.31133833850955   -0.00079760190992
C        -3.92437373433328    0.49131715604491   -0.00875764397058
C        -1.45631971740187    0.39500841977244   -0.00210166388760
H        -3.79839671894885    1.56403925502703   -0.01631006065151
H        -6.06114103419068    0.58492925688801   -0.01347757070233
H        -4.34589004249382   -3.32073952666507    0.01814402465348
H        -2.09668251525809   -2.35510058782926    0.01581883532060
C        -0.24947642824199   -0.31318211647793   -0.00124009411113
C         0.99882521594092    0.34257773263483   -0.00130442490916
C         2.29705038547815   -0.40400598625589   -0.00037054870983
C         2.43012379978101   -1.79476673569377    0.00008787133178
C         3.69555754670412   -2.37096215790434    0.00062175136474
C         4.83706119652958   -1.56373820253536    0.00070058395756
C         4.70636900232332   -0.19171940975202    0.00034443274979
C         3.44904070751188    0.38315153405755   -0.00017129178418
H         3.34158401866128    1.45658401822953   -0.00045124046446
H         1.55519406705583   -2.42402605427086   -0.00003543878095
H         5.80319747176407   -2.04219729773803    0.00106711932338
H         5.58754344250895    0.43168200749911    0.00043248468315
H        -0.27144845606595   -1.38732025599449   -0.00029225506821
O         1.09625134228359    1.60602616626798   -0.00204335288132
O        -1.51981595367230    1.66343246579967   -0.00432588959556
O         3.95953937562057   -3.70798260487198    0.00106724368395
C         2.89903829934711   -4.64196162667293    0.00105096514149
H         2.27938758749183   -4.54112019732397    0.89683564055705
H         3.38601959435729   -5.61621497392781    0.00131211902981
H         2.27969018433824   -4.54144089034973   -0.89497013042775
Li       -0.20088442941458    2.76924685102884   -0.00499965164412
C        -6.68600604428737   -2.08138127443619    0.00607069347987
O        -7.68942529120178   -1.19832810997194   -0.00906896058336
O        -6.86568893257077   -3.28099939479057    0.02125885203141
C        -9.01759533776690   -1.72483430833919   -0.00501988352966
H        -9.17379356832270   -2.35819126012758   -0.88089574902477
H        -9.67511412257893   -0.85970546711274   -0.02773389574195
H        -9.18380764323753   -2.31907306553108    0.89603234685770
39
 energy: -66.905636274502 gnorm: 0.004093942434 xtb: 6.4.1 (afa7bdf)
C        -5.18095652010222   -0.06028896127046   -0.00668470804645
C        -5.33408597585937   -1.44555259997938    0.00227162160246
C        -4.20064261224991   -2.25846599997260    0.00953360901483
C        -2.93472348611999   -1.70540742709222    0.00797520016456
C        -2.77199971705733   -0.31987781671659   -0.00076165589663
C        -3.91533690486964    0.48427950019306   -0.00823061195512
C        -1.45603624510283    0.39032726186881   -0.00201702876685
H        -3.78256082519529    1.55539279737345   -0.01531712528082
H        -6.05118834303499    0.57694210720252   -0.01248033333429
H        -4.33644043673977   -3.32961575404196    0.01696071258119
H        -2.08128793133296   -2.36300587969800    0.01470312951598
C        -0.24628351750522   -0.31246823727163   -0.00130242904260
C         0.99661474732616    0.34708097580338   -0.00157283271043
C         2.29104865894891   -0.39900473598150   -0.00053417817834
C         2.41773493350560   -1.79062612195861    0.00008964291199
C         3.68215949991074   -2.36975526944451    0.00073780535201
C         4.82478040250993   -1.56419041046011    0.00075115200061
C         4.70007403584428   -0.19161196469315    0.00025652316519
C         3.44424628737955    0.38575857931314   -0.00036829489072
H         3.33344326737606    1.45812182998344   -0.00076760011018
H         1.53996504141998   -2.41493945783562    0.00000981508922
H         5.78875482499966   -2.04723472656125    0.00119715640676
H         5.58171093153523    0.43066196586627    0.00030914387901
H        -0.26616102649558   -1.38620325584612   -0.00056455970924
O         1.08890976217716    1.61150392135741   -0.00275638622848
O        -1.52333111379237    1.65781851900592   -0.00378695801531
O         3.93748258688663   -3.70719306083062    0.00138428408415
C         2.86705833587229   -4.62964042610738    0.00150114180899
H         2.24847762392447   -4.52007197734378    0.89733081348244
H         3.33926528024181   -5.61107923188526    0.00191486071627
H         2.24879050234428   -4.52066855908642   -0.89460403630839
Li       -0.20199223176810    2.76865977774495   -0.00561583912526
C        -6.66900258925873   -2.08317743883455    0.00594753916078
O        -7.66874469513731   -1.19697611401628   -0.00846975801515
O        -6.85300539521523   -3.28285301348914    0.02069915532973
C        -8.99516497945819   -1.72241365480418   -0.00496627410672
H        -9.14821194356623   -2.35550298248512   -0.88124710708804
H        -9.65477567978166   -0.85935870251760   -0.02736872581355
H        -9.15872458645956   -2.31728853368839    0.89584304255643
39
 energy: -66.905826929254 gnorm: 0.003396285874 xtb: 6.4.1 (afa7bdf)
C        -5.17375747383029   -0.07028598255936   -0.00595175382289
C        -5.32148568800188   -1.45581922836406    0.00228622567278
C        -4.18732374992816   -2.26727210319080    0.00878899113868
C        -2.92252112300996   -1.71137355969720    0.00727389772396
C        -2.76451517824792   -0.32501404880255   -0.00072024136308
C        -3.90974805220081    0.47673171953620   -0.00752302636080
C        -1.45324167952919    0.39170031743421   -0.00188708488817
H        -3.77478902303914    1.54685321574949   -0.01404210104346
H        -6.04543680357762    0.56425522088191   -0.01116996859057
H        -4.32401910910067   -3.33807761761218    0.01563934918615
H        -2.06732511342637   -2.36642923309423    0.01334844565337
C        -0.24079009045955   -0.30721222865401   -0.00144596979531
C         0.99781221854755    0.35484434830732   -0.00207210882043
C         2.29030052189040   -0.39071590607371   -0.00075102868777
C         2.41031768515631   -1.78274902696404    0.00011488403688
C         3.67123816372413   -2.36915457711194    0.00088292612169
C         4.81682671310684   -1.56823573081115    0.00077368177645
C         4.69942082244766   -0.19496179247645    0.00008852486136
C         3.44672476647734    0.38863913065140   -0.00064487070435
H         3.33692744102051    1.46082349975273   -0.00122598728943
H         1.52933603746508   -2.40174033728796    0.00011391011109
H         5.77868907939078   -2.05593145440851    0.00129716165193
H         5.58341275783697    0.42371592862828    0.00005989986749
H        -0.25912142828266   -1.38090375475148   -0.00068020247604
O         1.08647389772621    1.61928154250724   -0.00358457234966
O        -1.52194594715786    1.65847601044997   -0.00344548683020
O         3.91555892357403   -3.70853256723288    0.00177586793867
C         2.83361481773435   -4.61754989283372    0.00209773278387
H         2.21603723388543   -4.50042585786000    0.89754869155239
H         3.29124267413416   -5.60579981438650    0.00269712332158
H         2.21629694935137   -4.50138527313421   -0.89363995376537
Li       -0.19785279157765    2.77452936534374   -0.00594548174980
C        -6.65694647889765   -2.09045949131320    0.00594239386647
O        -7.65398569524932   -1.20106017908219   -0.00776893179483
O        -6.84480475510599   -3.28979458949074    0.01974987465573
C        -8.98004621009405   -1.72331135984485   -0.00493104348577
H        -9.13527313941228   -2.35533391911882   -0.88111570228068
H        -9.63929962532951   -0.86010320972753   -0.02694766729960
H        -9.14614158191017   -2.31814264155832    0.89501350767773
39
 energy: -66.905982071685 gnorm: 0.003395448011 xtb: 6.4.1 (afa7bdf)
C        -5.16872012009368   -0.08047632122598   -0.00505034115165
C        -5.31259382882525   -1.46647545691094    0.00232668549110
C        -4.17584392397877   -2.27422993623895    0.00807588310570
C        -2.91276811402967   -1.71408413491497    0.00654768942008
C        -2.75803045470478   -0.32729251815667   -0.00063360102295
C        -3.90659514472932    0.47029330036332   -0.00660068501495
C        -1.44965031448193    0.39636642339139   -0.00200030561592
H        -3.77304746836942    1.54036359483367   -0.01245955353612
H        -6.04260106415360    0.55057125934887   -0.00963705007960
H        -4.30989546146482   -3.34533276107093    0.01415017534313
H        -2.05546762002075   -2.36654403212565    0.01181833606216
C        -0.23496331819108   -0.29929053042519   -0.00154295310084
C         1.00146345549296    0.36427593541187   -0.00237131472331
C         2.29312319823604   -0.38169280570899   -0.00100681876935
C         2.40653045963259   -1.77380813601131    0.00011628048548
C         3.66283927629710   -2.36912865783261    0.00102457869653
C         4.81257713390581   -1.57460752123699    0.00074128445784
C         4.70252440837841   -0.20056220788637   -0.00018720152768
C         3.45367207122270    0.39125260193415   -0.00103844069817
H         3.34844549790358    1.46402715585412   -0.00182873148972
H         1.52226690018135   -2.38766032404538    0.00025731305244
H         5.77243579375098   -2.06647140100036    0.00132608456757
H         5.59013408074660    0.41294811941432   -0.00033887901056
H        -0.25238765183534   -1.37302246155747   -0.00059669054163
O         1.08927735455299    1.62844155666409   -0.00444642353497
O        -1.52010141747034    1.66262365938290   -0.00337411411272
O         3.89521482622568   -3.71124687345501    0.00222175086947
C         2.80182999604049   -4.60654297995026    0.00283039176304
H         2.18544055910670   -4.48230279817033    0.89795117424527
H         3.24643158740227   -5.60063413896464    0.00364915282141
H         2.18557790996465   -4.48371346542943   -0.89255814252862
Li       -0.19389290256701    2.78147884073444   -0.00614326419251
C        -6.64863448283744   -2.10100384673098    0.00553786175993
O        -7.64403883063213   -1.20908212695385   -0.00713266116262
O        -6.83903313760830   -3.29973989675789    0.01845258978935
C        -8.97111239677928   -1.72653099208806   -0.00485314771405
H        -9.13100282700532   -2.35706017266351   -0.88112605723115
H        -9.62753302330898   -0.86093772840005   -0.02635499521419
H        -9.14201103985320   -2.32109329962051    0.89425404624281
39
 energy: -66.906120530249 gnorm: 0.002985361673 xtb: 6.4.1 (afa7bdf)
C        -5.16405441858749   -0.09079996026273   -0.00393798238816
C        -5.30467543715120   -1.47741127070087    0.00232443810344
C        -4.16441933259495   -2.28037364049728    0.00706935904569
C        -2.90340540317230   -1.71515523076637    0.00564006864084
C        -2.75190533846856   -0.32806429867618   -0.00048185521957
C        -3.90413908450029    0.46463932879213   -0.00542208607574
C        -1.44579353346403    0.40223646461441   -0.00186830014781
H        -3.77471232944617    1.53537968813883   -0.01046369044616
H        -6.04058383810480    0.53644918368571   -0.00771181137648
H        -4.29326938217309   -3.35227746487377    0.01234909044221
H        -2.04387681760422   -2.36507035092848    0.01002989565911
C        -0.22916833927979   -0.28977970935711   -0.00172014531628
C         1.00660691402321    0.37526263131896   -0.00306536149231
C         2.29764765116484   -0.37233670089869   -0.00134671169636
C         2.40370022336656   -1.76446189054536    0.00012570178512
C         3.65488594864752   -2.36939004201245    0.00116185059498
C         4.80975869934206   -1.58271656590178    0.00063675961465
C         4.70740211132176   -0.20779605130339   -0.00060983051894
C         3.46290171781310    0.39361315551722   -0.00155950248518
H         3.36533159415404    1.46743247427600   -0.00263316849058
H         1.51580739107174   -2.37282944050093    0.00038450555696
H         5.76738435699042   -2.07884302658883    0.00133644509852
H         5.59961329622644    0.39923601261006   -0.00092584267731
H        -0.24556545125780   -1.36350668424927   -0.00040811118036
O         1.09512477531677    1.63918575604711   -0.00530042996514
O        -1.51980378745713    1.66813954070651   -0.00341112978220
O         3.87397415579774   -3.71456385238621    0.00275782329199
C         2.76894904901460   -4.59537474882744    0.00379977677178
H         2.15414660226874   -4.46307922249912    0.89880127006017
H         3.20059718825389   -5.59506563886460    0.00492946544975
H         2.15406993165619   -4.46514677640243   -0.89142069734362
Li       -0.19348219456299    2.78742642018037   -0.00621457060563
C        -6.64086225487432   -2.11378145861588    0.00529269604517
O        -7.63517538147395   -1.21990312399451   -0.00631349121131
O        -6.83260481821318   -3.31189084187902    0.01656454209777
C        -8.96446985131233   -1.73103760835375   -0.00479658128115
H        -9.12948291324497   -2.35971639033266   -0.88160391405180
H        -9.61591752583543   -0.86133543092047   -0.02566764316480
H        -9.14067420755004   -2.32521831294794    0.89367907485881
39
 energy: -66.906217060233 gnorm: 0.002179609512 xtb: 6.4.1 (afa7bdf)
C        -5.16029753949562   -0.09815094600569   -0.00279246308242
C        -5.29795268732915   -1.48531495613185    0.00235597627397
C        -4.15454784090024   -2.28391443859322    0.00625686555696
C        -2.89544359113764   -1.71402619153533    0.00483846851034
C        -2.74731393192324   -0.32661494713232   -0.00028318380676
C        -3.90244370207727    0.46181980219942   -0.00414361393261
C        -1.44280433553772    0.40809511795102   -0.00213311605475
H        -3.77837000095838    1.53345880321843   -0.00833882080857
H        -6.03914121353624    0.52599963625245   -0.00581421930803
H        -4.27751601679793   -3.35672707856596    0.01050974623905
H        -2.03409761081805   -2.36181205374730    0.00826489982861
C        -0.22508040964873   -0.28099714011274   -0.00166721602369
C         1.01116561403641    0.38491952727477   -0.00299082515036
C         2.30122519107504   -0.36529188644249   -0.00168631148633
C         2.40063604673751   -1.75754201644083    0.00002817236922
C         3.64771914962993   -2.37016586354772    0.00124884007217
C         4.80717571196117   -1.59054890621309    0.00049563235054
C         4.71129292658429   -0.21486473116843   -0.00108728427061
C         3.47049051629632    0.39471910180016   -0.00215277433520
H         3.38113439743455    1.46951644473787   -0.00343314397834
H         1.50960547411886   -2.36115151628988    0.00048756196692
H         5.76269844268874   -2.09046103273614    0.00127278567325
H         5.60762791439779    0.38627537574804   -0.00158183035126
H        -0.24057905424813   -1.35463702066722   -0.00013136146852
O         1.10121160435406    1.64865233659113   -0.00599267335558
O        -1.52074955904821    1.67384446931094   -0.00352740680792
O         3.85548145358907   -3.71761074503134    0.00325563756456
C         2.74156886455244   -4.58675812220757    0.00477269138061
H         2.12832612370671   -4.44737188248987    0.89984247222115
H         3.16272676750200   -5.59078872891960    0.00626341680134
H         2.12801758126559   -4.45016932998525   -0.89047949967239
Li       -0.19507833419427    2.79211866434159   -0.00664687801549
C        -6.63346602996903   -2.12462121471674    0.00448029984663
O        -7.62771267393775   -1.23042571347029   -0.00574143315090
O        -6.82458600689435   -3.32248567578113    0.01458087248573
C        -8.95914302858687   -1.73673450905021   -0.00468586203115
H        -9.12729068428108   -2.36378729684798   -0.88225753617165
H        -9.60622096658767   -0.86361265373240   -0.02484201117697
H        -9.13840859592225   -2.33075776006342    0.89345503149851
39
 energy: -66.906276353655 gnorm: 0.001457400288 xtb: 6.4.1 (afa7bdf)
C        -5.15797052135092   -0.10130403924504   -0.00191760141322
C        -5.29309034039472   -1.48881441267322    0.00225595166541
C        -4.14757735624787   -2.28436833908947    0.00533594141397
C        -2.88991963891005   -1.71105603706449    0.00411050025324
C        -2.74471139616621   -0.32331204377065   -0.00010991377176
C        -3.90161043423741    0.46217474949394   -0.00315467004534
C        -1.44109017284846    0.41331739472818   -0.00164686692255
H        -3.78221166379932    1.53453375077763   -0.00655589950991
H        -6.03832005982437    0.52086203162719   -0.00427938297872
H        -4.26594862333600   -3.35782727473766    0.00900995730330
H        -2.02736837159177   -2.35727036710286    0.00692968272630
C        -0.22320419575213   -0.27443092098905   -0.00177531059860
C         1.01393868091014    0.39136581959182   -0.00382583141538
C         2.30272915572031   -0.36157509870066   -0.00186994868636
C         2.39747508841388   -1.75403635661230    0.00015920400831
C         3.64208703259798   -2.37139684676829    0.00134864095999
C         4.80456511305355   -1.59648670745163    0.00034208976831
C         4.71304115890529   -0.22031186739728   -0.00150667966147
C         3.47460602709153    0.39442095730967   -0.00254541841992
H         3.39136988813837    1.46981137490254   -0.00410183541071
H         1.50437980695520   -2.35441860184444    0.00065921916406
H         5.75847377653126   -2.09924115675474    0.00121625550135
H         5.61203250257015    0.37690345441866   -0.00219911529030
H        -0.23828325693175   -1.34795473774088    0.00012299805728
O         1.10555079422970    1.65490248194214   -0.00630355965580
O        -1.52150783577850    1.67907773030113   -0.00360466167176
O         3.84272045029616   -3.71994765597331    0.00362349386313
C         2.72396635477581   -4.58226846652693    0.00556537207173
H         2.11179331818182   -4.43847111238119    0.90073259609166
H         3.13876467169701   -5.58878440391990    0.00736938560866
H         2.11126328705185   -4.44188886388687   -0.88975189477440
Li       -0.19616816672417    2.79595168585116   -0.00704828675476
C        -6.62743584974002   -2.13105748483379    0.00429313124217
O        -7.62256297055316   -1.23807618267292   -0.00516304289588
O        -6.81644213280295   -3.32917669984937    0.01275809941059
C        -8.95500596979067   -1.74296338029490   -0.00464123234658
H        -9.12350196063189   -2.36909344661201   -0.88287695808713
H        -9.60020891428360   -0.86852985855173   -0.02427408983621
H        -9.13475730932329   -2.33718414569871    0.89331958723738
39
 energy: -66.906337066162 gnorm: 0.001423011704 xtb: 6.4.1 (afa7bdf)
C        -5.15622572983236   -0.10133709036555   -0.00084099898242
C        -5.28816972455796   -1.48912405023077    0.00222890278234
C        -4.14069772354159   -2.28170612385481    0.00461489424577
C        -2.88464759791558   -1.70488399415542    0.00343171448760
C        -2.74289690406070   -0.31670533700571    0.00012478587470