38
 energy: -62.949268687254 gnorm: 0.000918419733 xtb: 6.4.1 (afa7bdf)
c        -3.33309245032775    0.36665786659447   -0.07303361766073
c        -2.64270703115682   -0.78805027513037    0.29528539601636
c        -1.26707119146491   -0.72614324562039    0.51095923871588
c        -0.59944950755894    0.47179143402977    0.35740086534497
c        -1.29099758644798    1.63459855085094    0.01403849969216
c        -2.66533670804164    1.56472975079767   -0.21120545425937
h        -3.20389866327727    2.45392383914386   -0.50140137250692
h        -0.73232473700497   -1.61980338356517    0.79064709556738
h         0.46625322615271    0.51901093790425    0.52532785749639
c        -0.55110951457967    2.88469970375655   -0.16538602471532
h         0.28416353858386    2.81891396029616   -0.85387367376095
c        -0.79662835109884    4.06076291358603    0.42514898225512
h        -4.39710097964557    0.30282121300104   -0.24541123465672
c        -3.39713515421521   -2.05338880640145    0.43938380156975
o        -2.62074641859702   -3.07814912166515    0.80193252128628
c        -3.25047246665050   -4.34423905929403    0.96568752391541
h        -2.44691751401238   -5.05295192202848    1.14718607522700
h        -3.80872251563003   -4.60964757735606    0.06539461153203
h        -3.94000513208825   -4.31582520468482    1.81204741530797
o        -4.59098491888589   -2.16534555151738    0.24835773230652
c        -1.82065060799403    4.30095058971903    1.45802938057444
h        -0.19889836306873    4.91719519821466    0.15135040620008
c        -2.05099931125824    5.73059190609507    1.80768470605791
o        -2.45292801405108    3.41121858334363    2.00460818746036
c        -1.01022898300683    6.65283800127794    1.92744358576393
c        -1.29486950905777    7.95645093633422    2.28386461116492
c        -2.59868015968163    8.37218939122005    2.50434447003444
c        -3.64436745103640    7.45915500610669    2.39112963713944
c        -3.35471484527457    6.13605205863256    2.05675953021652
h        -4.16491089000008    5.42676889970898    1.98254709021839
h        -2.78516200539235    9.40024038509452    2.77004859438513
h         0.01452400592092    6.34776610355163    1.78643398609306
h        -0.49116539147679    8.66923110622094    2.39127670636626
o        -4.95534588988960    7.74594895493592    2.58508378184167
c        -5.32377481819987    9.06256447714806    2.93824133985219
h        -4.87826194330901    9.35886427374835    3.89272615325498
h        -6.40773006590844    9.04202629154729    3.03456207425047
h        -5.03987045716785    9.77830264370237    2.16074797115318
38
 energy: -62.864869886623 gnorm: 0.071442622171 xtb: 6.4.1 (afa7bdf)
c        -3.36398964848415    0.17649698221626    0.12098201001197
c        -2.56583452209580   -0.95213461111746    0.30747831906633
c        -1.18462324645544   -0.83650954895005    0.45447438802254
c        -0.63139980285287    0.41818219987102    0.29943003323333
c        -1.39962364496554    1.55159403997265    0.02838304435996
c        -2.78812351736874    1.42423291052250    0.01190125808372
h        -3.34155221843167    2.34627171235508   -0.08023916462941
h        -0.48163522075658   -1.62046785757940    0.68690649532872
h         0.44265235327495    0.47441628356129    0.39638943327417
c        -0.77745703963775    2.87468515189869   -0.04031109003654
h         0.17256139845926    2.93186441918533   -0.56013751946964
c        -1.12049390304273    4.01633232739095    0.56887119012731
h        -4.43832745599819    0.06842330315319    0.12563345548408
c        -3.22393151233475   -2.25201537093732    0.56867948282982
o        -2.44460257530666   -3.33010160885838    0.44730734939254
c        -3.10764138526468   -4.58918402839830    0.40929001418420
h        -2.42377984713644   -5.25368498058670   -0.11194706038627
h        -4.06270902237321   -4.48073153504805   -0.10906892573033
h        -3.30714681395706   -4.99214633829450    1.40448178907696
o        -4.42091878086188   -2.29305520176148    0.76827838585629
c        -2.10223538973502    4.33353749196066    1.62182796183249
h        -0.48723328923628    4.85309801273367    0.31484919587716
c        -2.20180900001895    5.80712988235636    1.81626051587859
o        -2.65704474126690    3.57035068149987    2.39634620678720
c        -1.07853836813923    6.58584709689904    2.09900658645542
c        -1.27914444355588    7.93284282710065    2.32883793894694
c        -2.53886992332567    8.51030059159261    2.36055838824649
c        -3.65268061149288    7.68703322863887    2.21369868659876
c        -3.48159473237474    6.33300460740194    1.92449394009541
h        -4.39558257318820    5.76986530648235    1.81265480113733
h        -2.58130514433411    9.58664444810337    2.40467305007247
h        -0.12970121377736    6.07468707853360    2.13766764389891
h        -0.40551091623240    8.55107929620353    2.47054649256845
o        -4.93505549516052    8.11680891773981    2.31034689016683
c        -5.04740757949529    9.42616585078884    2.82696858733272
h        -4.35896180261039    9.51691944386893    3.67261788959940
h        -6.05326999603532    9.46561529246657    3.24090459234250
h        -5.03102642673772   10.29536606228931    2.16243763231519
38
 energy: -62.906648778150 gnorm: 0.078450806253 xtb: 6.4.1 (afa7bdf)
c        -3.41888005296247   -0.26245001561941    1.02928324430045
c        -2.54098100695204   -1.26336171744764    0.61321714783174
c        -1.21272389642347   -0.92687237129888    0.35781597309799
c        -0.82361159047039    0.39683861828718    0.38478529389100
c        -1.75142827645450    1.42111165331983    0.58043282236235
c        -3.02842441348062    1.05946607818371    1.00812200383170
h        -3.71852827151662    1.81962652308141    1.34105084940567
h        -0.61163592941324   -1.81998603299232    0.29577713335077
h         0.20379687148480    0.72873131618331    0.36403368622388
c        -1.20686784931569    2.76577058004172    0.38619861015845
h        -0.31470663750113    2.72413915698446   -0.22889434397943
c        -1.54505043247909    4.01248965610050    0.73756738051916
h        -4.40476897315915   -0.43046522919929    1.43634258464486
c        -2.96002359398895   -2.68232520114807    0.56901492320847
o        -2.33473028368433   -3.36222087372869   -0.39592288183178
c        -2.61765185518634   -4.71336302247017   -0.74337738360590
h        -3.35377594426767   -4.67477727761021   -1.54184383825597
h        -2.95488079232512   -5.29953794599612    0.11411182142205
h        -1.69884103160182   -5.15679139842644   -1.13292283826388
o        -3.82710089133205   -3.14489300493565    1.28211420715987
c        -2.55335288062119    4.43623241450610    1.72596103054660
h        -0.94819211659854    4.87890239171379    0.49505502729857
c        -2.52710549399842    5.90580085434230    1.96859952337642
o        -3.36792057894516    3.84281869584504    2.41479036056300
c        -1.29782639028401    6.43087169397752    2.37016705128903
c        -1.12162121247353    7.79892636832983    2.30058951291226
c        -2.17462126794982    8.67580745130270    2.09168160143101
c        -3.45653003336329    8.13175856638629    2.06654090356483
c        -3.62888436283559    6.74942897565156    1.99063085301960
h        -4.63635388369843    6.42108083893697    1.78520347730735
h        -1.95907846441494    9.72261886474090    1.95029495704223
h        -0.48519218341562    5.75428717717141    2.58213477405836
h        -0.09927176718826    8.14492945350269    2.32542347123261
o        -4.64569045759549    8.78073084277868    2.00939253590604
c        -4.72415297263560   10.13994749300772    2.38397270958926
h        -4.10120208214517   10.26413807741104    3.27494152955310
h        -5.76674827210203   10.32517342635371    2.63565678976609
h        -4.42743241522502   10.90968178576177    1.66505353564557
38
 energy: -62.891011826241 gnorm: 0.079978682739 xtb: 6.4.1 (afa7bdf)
c        -3.14856588333861   -0.96947237328129    1.84599533506123
c        -2.37457566982223   -1.67919641170153    0.92791427686077
c        -1.31808157649067   -1.02196876599552    0.29974728658459
c        -1.20988194893623    0.34642247813963    0.44167928305767
c        -2.11443066480918    1.11441995297500    1.17668163220575
c        -3.01193727428067    0.39695549416694    1.96671408558590
h        -3.59957384181400    0.94269696563372    2.68905634323178
h        -0.58208274361599   -1.48675775070214   -0.33671516979534
h        -0.43040545395241    0.77127216846088   -0.17319521282207
c        -1.91158691289724    2.54764099752501    0.95962763558286
h        -1.06634803541201    2.52721358892561    0.28052670120241
c        -2.20195267853517    3.83168596782183    1.20263414692124
h        -3.81557112153601   -1.49946660153359    2.50940582517571
c        -2.58469311965845   -3.08275104948689    0.50732796510292
o        -2.30274552259629   -3.11864929533731   -0.79788145887625
c        -2.38317028772465   -4.27137664569394   -1.62920922126741
h        -2.64947217158340   -5.16829014236249   -1.07644734097409
h        -1.40650443296968   -4.41948774585988   -2.09482605820142
h        -3.09485572449131   -4.02740155754936   -2.42076952021957
o        -2.85148166581009   -4.06043805702931    1.17609888977166
c        -3.17849722781463    4.65276110108427    1.94111240225913
h        -1.57102990838133    4.58037584899918    0.74752643810419
c        -2.81632084963527    6.09741939173576    1.97248838542733
o        -4.25854914127023    4.38394341841902    2.44248166605351
c        -1.47542212189427    6.41334768664766    2.19668226142628
c        -1.12518306251230    7.73502909923536    2.39149944714958
c        -2.06978229312208    8.74884690707074    2.35575296107355
c        -3.38561230658253    8.40085904884523    2.06010595680518
c        -3.80457533360012    7.07118597291663    2.00773289075947
h        -4.84589317651616    6.82994165721321    1.85784603593417
h        -1.71850382566872    9.76732359341712    2.39539757824730
h        -0.81408854207269    5.56615970109486    2.28602256778812
h        -0.10159218869307    8.07374220492775    2.44689262696831
o        -4.32514137937597    9.30987146114634    1.70022400351561
c        -3.95504763950856   10.67093466096088    1.63333480855945
h        -3.58249559704426   11.01090407624739    2.60438698208837
h        -4.76322676064582   11.33325326372746    1.32863978400413
h        -3.08102753498281   10.81409287739109    0.99070479771225
38
 energy: -62.882840363552 gnorm: 0.081043641402 xtb: 6.4.1 (afa7bdf)
c        -2.78680296565732   -1.02889118473271    2.01856991017441
c        -2.08368543078904   -1.58247969740274    0.94861319738933
c        -1.35226418874509   -0.76124519229792    0.09227298670609
c        -1.36805296149259    0.59560358654597    0.34338759675430
c        -2.11258066931146    1.19767366789778    1.35898941501039
c        -2.77375640666575    0.33316340988317    2.23070799994075
h        -3.37859580682612    0.74484975674923    3.02418923708169
h        -0.82435508453370   -1.12454932475777   -0.77498108303801
h        -0.75453609215662    1.19030243264595   -0.31697733249081
c        -2.14986620119071    2.64786138255189    1.16419218077723
h        -1.33368986019931    2.69236147525941    0.45152112249765
c        -2.65144023846460    3.86943412597080    1.38400902485150
h        -3.47938765568989   -1.65405370632919    2.56207852212337
c        -2.30361323811298   -2.93740495765102    0.39470247262018
o        -2.44553072297131   -2.82110442471896   -0.92843333997889
c        -2.47376382668545   -4.04757317618182   -1.65046632051673
h        -1.49242438690193   -4.27024028719490   -2.06072047416610
h        -3.17840771928707   -3.93580452761087   -2.47726549901840
h        -2.85186600340796   -4.84579422939203   -1.00822835459281
o        -2.25764431562882   -4.00158433970457    0.97755035588164
c        -3.71076653183872    4.59085234633816    2.11238895356343
h        -2.19843021172977    4.66719585593935    0.81472768707224
c        -3.18292064339676    5.97201288400857    2.29396000380838
o        -4.80305816038216    4.27101036408409    2.55368968054057
c        -1.85330732040185    6.08156828802852    2.70409291685707
c        -1.18196647238409    7.28842097681297    2.68763246965913
c        -1.87954018643046    8.43375606254489    2.33696093641153
c        -3.21148098708493    8.36769288073484    1.93511433622187
c        -3.85890793340443    7.13193747554282    1.94221210110164
h        -4.85757257581342    7.09513068043201    1.53438624017060
h        -1.37211491235970    9.38267868019437    2.27116977657831
h        -1.35791397321728    5.18805001493863    3.04946489794597
h        -0.11566419533631    7.25356935408813    2.85291425701112
o        -4.01626278320391    9.38039616335577    1.52855340489797
c        -3.44809103524567   10.58854082171100    1.06865784545200
h        -3.20424800166326   11.35986379049180    1.80548754423645
h        -4.12401753517535   11.10851250833428    0.39233595947751
h        -2.53572088540116   10.38769801413858    0.49890208582434
38
 energy: -62.898666878368 gnorm: 0.071224854453 xtb: 6.4.1 (afa7bdf)
c        -2.89778961193334   -0.44054980324654    1.61683212479413
c        -2.10467225580667   -1.10257630628803    0.67964075395866
c        -1.35676693412625   -0.36138001661539   -0.23358836237490
c        -1.19967128760389    0.99268421738207   -0.01869891727826
c        -1.93715974456565    1.67647883724503    0.94918158082526
c        -2.79746200614659    0.92772354242399    1.75147215703329
h        -3.43022250961898    1.43615135353576    2.46283994884637
h        -1.04589875026659   -0.93730232708091   -1.09060762324188
h        -0.64787942425407    1.62888207406846   -0.69466455522359
c        -2.04471617253016    3.11479797891601    0.70008271472798
h        -1.49643132098083    3.27067263801804   -0.22247403295855
c        -2.75179157564890    4.13345787743848    1.20457485776037
h        -3.57481258601741   -0.98119020662583    2.26123199989255
c        -2.25346818937478   -2.56761903990628    0.52958284404567
o        -2.54829890003863   -2.77663434088043   -0.75639625047087
c        -2.65002226023821   -4.10861930143689   -1.24815102493044
h        -3.22809076012940   -4.01413172987241   -2.16347889940267
h        -3.11511937042799   -4.76812521075130   -0.51238695778827
h        -1.65216168855589   -4.48758701061757   -1.47890081683813
o        -2.09434420820184   -3.42423623467770    1.37527138401269
c        -3.72374580453341    4.31465695271548    2.29802155007531
h        -2.62713085222025    5.08837640700424    0.71640129668221
c        -3.40064364877558    5.67084075699024    2.82296375338789
o        -4.59765656829527    3.55002188850295    2.67453112408004
c        -2.20249806115594    5.89851429929927    3.50170889035364
c        -1.49431338869786    7.06962200741454    3.31611753680558
c        -1.94901151640615    8.03575392816876    2.43225621424952
c        -3.21688742219707    7.88931711821924    1.87461983172528
c        -3.96432702995699    6.74287868425284    2.14538995642825
h        -4.89110347466324    6.66037952810379    1.59831858897216
h        -1.24130482713368    8.81729620194627    2.20729852357299
h        -1.77191533674622    5.14240049264995    4.13886015825309
h        -0.49711310003997    7.21651061661437    3.70283267199720
o        -3.70086767243736    8.75280500264180    0.94796709231848
c        -2.98766412417551    9.95674015470157    0.75871214276254
h        -2.59601937305675   10.37616510027201    1.69038464916533
h        -3.63260476842357   10.67974958014723    0.26276111646744
h        -2.15060955655069    9.79039170733160    0.07384237624550
38
 energy: -62.902172633635 gnorm: 0.067823146243 xtb: 6.4.1 (afa7bdf)
c        -2.87072684272571   -0.14108953977522    1.26483290540156
c        -2.05996025703718   -0.90704459370589    0.42721004763986
c        -1.30570475818865   -0.27884593109930   -0.56232850149449
c        -1.30612280687004    1.09819746311046   -0.65231492036087
c        -2.11328143072884    1.88486005659360    0.17104018220395
c        -2.91165715803934    1.22771939500214    1.10655433186546
h        -3.64220368857595    1.80138902449036    1.65622117323619
h        -0.68591475407827   -0.80601485468930   -1.26997297442519
h        -0.64627984884029    1.57547432604865   -1.36151550502721
c        -2.31618434992151    3.32728695035144    0.02745968070294
h        -2.08072256006298    3.66711156316324   -0.97508759147418
c        -2.86629622815656    4.18526923035481    0.89543380029019
h        -3.54906227224725   -0.67527272607270    1.91322523032249
c        -2.28430909407241   -2.35697839133500    0.62308535692740
o        -2.45337737229759   -2.90782086399618   -0.58204664819696
c        -2.62975310147032   -4.31991734504287   -0.61710991019078
h        -3.31865692086954   -4.53295671537952    0.19587345807614
h        -1.64036791416052   -4.75414613054442   -0.45844537692671
h        -3.07627213853790   -4.55931853128279   -1.58452684490257
o        -2.44201058733574   -2.86211186817591    1.71591327253587
c        -3.32480873800982    4.11557579320336    2.29474176259813
h        -2.99204921603973    5.17643432189328    0.48616492912630
c        -3.32965358046101    5.51275137583010    2.81153062496567
o        -3.76272797975886    3.14206145919828    2.88689275268580
c        -2.52750175257297    5.80701930622777    3.91517998101337
c        -1.96199330969378    7.05235733846806    4.10700377469380
c        -2.19357032428190    8.07105863214211    3.19596484854649
c        -3.08637795668706    7.82002451627519    2.15683643421347
c        -3.67291548546442    6.56707450898192    1.97685431204198
h        -4.36684563452485    6.43613448957424    1.16056793269802
h        -1.70354585138282    9.02694625843606    3.28771418760360
h        -2.29684952470348    4.99001671101099    4.58029473198382
h        -1.24335005866809    7.22707213219668    4.89348957671349
o        -3.47328421369868    8.60721505776269    1.12283055745181
c        -2.72600467469634    9.63726023463728    0.51085275060259
h        -2.52259382959185   10.42590849973340    1.24158834130629
h        -3.29792586162735    9.96012221987952   -0.35709009555397
h        -1.79564032987529    9.24743966588178    0.08677626133587
38
 energy: -62.909213558678 gnorm: 0.067185953896 xtb: 6.4.1 (afa7bdf)
c        -3.21841353349935   -0.42866255477614    0.95118782269243
c        -2.29202064140327   -1.10903064770296    0.16091105887993
c        -1.50892732156230   -0.35203665915983   -0.70882837999292
c        -1.75603352577696    0.99714420306706   -0.86047267287748
c        -2.65026856818727    1.66222483172272   -0.02007490124499
c        -3.38694504707268    0.93911688470203    0.91739365856854
h        -3.96033141415791    1.49566108157634    1.64293859828204
h        -0.75168235705210   -0.83093760676668   -1.30886295939530
h        -1.19273646012284    1.54963529890918   -1.59776605072146
c        -2.74021909986306    3.10364102021062   -0.25800105283453
h        -2.76427924605022    3.31203001885389   -1.32196499707892
c        -2.81275830451111    4.19634998200667    0.51197369984677
h        -3.84838029111762   -1.01186550406801    1.60610732370047
c        -2.15185257312574   -2.53661901806570    0.52608524044978
o        -2.01569496474794   -3.40162823109891   -0.48266395996224
c        -2.34579008343808   -4.73913033143704   -0.12422333805563
h        -1.51516636355960   -5.26038387201519    0.34404495296604
h        -2.57542439736198   -5.19271048872742   -1.09073523712699
h        -3.17172499475204   -4.66223038009421    0.58606226022102
o        -2.34195561332363   -2.91292243896330    1.66475074684025
c        -2.85329280852389    4.38708778010961    1.97318205686738
h        -2.73410186733161    5.10327482761371   -0.06856365004776
c        -2.95959065007263    5.79510349828907    2.44793082093935
o        -2.79966715026160    3.42683095951706    2.72496486661984
c        -2.50612848477245    6.00085134063827    3.75181845305514
c        -2.44890424368718    7.25217263506604    4.33352572930706
c        -2.95602123052978    8.34265558363749    3.64428598732446
c        -3.30477583051488    8.20500313451472    2.30289364079218
c        -3.24282356994716    6.94039254866396    1.71703912068795
h        -3.48300872745529    6.93433094614631    0.66476437757439
h        -3.04388494649284    9.30265419992533    4.12693044536710
h        -2.13178047454355    5.14557623846265    4.29166970834243
h        -2.04420758759010    7.25623923802713    5.33439403068424
o        -3.50446234917829    9.29049896303332    1.51526579976941
c        -2.25701765461725    9.73103934336885    1.02156296344710
h        -2.11175527100573   10.76151157979857    1.35970843999025
h        -2.19651171236689    9.67442155094226   -0.06369826784275
h        -1.45991615866016    9.07066912667642    1.37641382368403
38
 energy: -62.910581637657 gnorm: 0.076093039346 xtb: 6.4.1 (afa7bdf)
c        -3.51616438730022   -0.21420122241539    1.29281320713449
c        -2.79042476983294   -1.12212143519609    0.52169401696881
c        -2.06746062835926   -0.59902943292069   -0.54901571887300
c        -2.05862005946168    0.75206803815013   -0.82973610799539
c        -2.85299978249857    1.64709967836432   -0.11130991822237
c        -3.58443321940400    1.11990057295494    0.95240567813805
h        -4.20511116780872    1.74203799427656    1.57900981354285
h        -1.49125930899846   -1.34358677438647   -1.07478558626019
h        -1.44132853060630    1.13019820715032   -1.63106017758339
c        -2.92042203873630    3.04492181195347   -0.54017831015306
h        -3.05720226867820    3.10217754849832   -1.61443949666642
c        -2.87318176801002    4.15262156928043    0.21009199537698
h        -4.07209191677462   -0.54172144150408    2.15859519107429
c        -2.43791872702914   -2.53016493556486    0.81179886424681
o        -2.27012329687572   -3.25671972671010   -0.29649604880511
c        -1.68447553075596   -4.55376132813828   -0.26402887122155
h        -1.40529196423022   -4.77368370819717   -1.29096942124429
h        -2.43840567110699   -5.29839556362209    0.00001909524939
h        -0.82248618836398   -4.51616789281811    0.40541031177579
o        -2.24001641506836   -2.95875090231775    1.93048171250558
c        -2.43432068046323    4.40755023330046    1.59413178628145
h        -2.97789867726832    5.02719528098042   -0.41431037066115
c        -2.52141592476369    5.78169909194010    2.16274695677153
o        -1.85842214732692    3.56523875427701    2.26420529664475
c        -2.71981546983665    5.68331144998678    3.54080375937384
c        -3.13576597025021    6.78366416407492    4.26445563198727
c        -3.30887354879892    8.01214169324398    3.64619286784129
c        -3.00755229100525    8.16900206084925    2.29544799091415
c        -2.69400064855940    7.02237683108838    1.56521549800397
h        -2.60922123210754    7.27598876152409    0.51950940532420
h        -3.62205049786115    8.83131488292669    4.27320046960005
h        -2.50900231422153    4.76095293518263    4.05837877251928
h        -3.43222480554391    6.69578723901866    5.29882649427172
o        -3.19061393426907    9.38366641385178    1.72132912778230
c        -2.05987045279930   10.16147525759532    1.38911056348133
h        -2.40894813809970   11.19695185987725    1.33210590661221
h        -1.75416524718095    9.83855979128604    0.39566785567436
h        -1.20142862047128   10.06864423981646    2.06130010308844
38
 energy: -62.897906278284 gnorm: 0.072551988377 xtb: 6.4.1 (afa7bdf)
c        -3.21955405744647    0.12055150580374    1.61821140046052
c        -2.73044215606767   -0.82531362940071    0.71723933055793
c        -2.28344306580945   -0.31934805742611   -0.50215086778237
c        -2.43862705966485    0.99134595709795   -0.90507223646882
c        -3.15948122488718    1.84665242222142   -0.07016080476648
c        -3.48253074290037    1.41227444722773    1.21489928315687
h        -3.92851847321267    2.11889050746319    1.89806656089855
h        -1.64767384396320   -0.97737761628972   -1.07276647135164
h        -1.95025202054388    1.27277600196668   -1.82617944251572
c        -3.30716070635042    3.22381707746549   -0.54343537564870
h        -3.76108818062556    3.28213452639000   -1.52657984394959
c        -2.79969859673806    4.31086826586953    0.05065028015464
h        -3.31599108918959   -0.27221292416853    2.61938040808782
c        -2.58662146551019   -2.27233752977272    0.99372687952522
o        -2.28756549442349   -2.96764132583426   -0.10694246091486
c        -1.41707547639786   -4.09252722651625   -0.16380370507417
h        -2.01185012562883   -4.98217161983093   -0.35272746309012
h        -0.85085181652517   -4.19577975300071    0.76428132274071
h        -0.75112728194126   -3.85401524333364   -0.99579694612693
o        -2.72751628975029   -2.71326403795718    2.11623972201705
c        -1.99472265609313    4.28274564760685    1.28530672741634
h        -3.04933731500166    5.24141145375816   -0.43668222929704
c        -2.41835534379401    5.41023355829157    2.16194809768579
o        -1.06313689436135    3.51351804925609    1.46018686948158
c        -3.26898319400495    5.23372396925949    3.25435809513478
c        -3.70492861668442    6.29984692640381    4.01645803899567
c        -3.36097166454593    7.59698800748141    3.66934032865301
c        -2.77442338970679    7.78695502259454    2.42042680498318
c        -2.25040116909475    6.70992054343126    1.70509408912538
h        -1.81272464120099    6.93601051891082    0.74471378982619
h        -3.70204615799196    8.44412858623504    4.24230110685877
h        -3.51406216721039    4.21219329177126    3.49824874668945
h        -4.42932996176284    6.09404612215324    4.79003542583024
o        -2.96928316870864    8.89217812500533    1.65947671980038
c        -1.94992924624393    9.85105300431345    1.47129296812814
h        -2.40601495409712   10.53908815693092    0.75302421083790
h        -1.07738092436289    9.34105739300010    1.06728506666866
h        -1.72501202465334   10.38670735664554    2.39858224781196
38
 energy: -62.903252387642 gnorm: 0.073630631783 xtb: 6.4.1 (afa7bdf)
c        -3.08830282113308    0.26248262405443    1.42501607376705
c        -2.65586408159035   -0.63794215602367    0.45142790120685
c        -2.59449110397204   -0.14960517218453   -0.85259747265493
c        -3.00958013539062    1.14118673418989   -1.10931498873930
c        -3.37678447934135    2.06745666632054   -0.13184785297308
c        -3.42765839258671    1.57432141281839    1.17147641600279
h        -3.59412768890699    2.26451781128961    1.98440061810835
h        -2.12850534170760   -0.73444136852355   -1.62953471779158
h        -2.99615642392777    1.50011423684032   -2.12771687205903
c        -3.51317607088123    3.46921787104134   -0.53039955625112
h        -4.36307342894099    3.60239581245905   -1.19067394564463
c        -2.79245136637933    4.48913497990615   -0.04825756003379
h        -3.02826917373711   -0.00866489272740    2.46846150404636
c        -2.30561945412855   -1.97927520326509    0.97023642412821
o        -1.55089281855829   -2.74059909314831    0.17328694520665
c        -1.42916733313110   -4.10635309214880    0.55571768462033
h        -1.77015934890677   -4.16515467428630    1.58585506969267
h        -0.42079797522011   -4.48467772628252    0.37495861286497
h        -2.10014900472232   -4.64691968795075   -0.11522125906293
o        -2.63474668618711   -2.31864363085645    2.08863123180656
c        -1.79069535617340    4.41915644637724    1.03097442439925
h        -3.11851406184228    5.46114390157243   -0.38679100937026
c        -2.21224934289451    5.42433002615539    2.04641136049205
o        -0.99504971940920    3.49383211077787    1.06045588373524
c        -2.96421508713838    5.01707607276278    3.14948652058935
c        -3.98425898494732    5.81566748521650    3.62826116644939
c        -4.05154053622356    7.15315354388517    3.27052331858320
c        -3.03995930989068    7.66607743383405    2.46211505865030
c        -2.24955161088931    6.77613342739016    1.73440709763247
h        -1.72817681932487    7.09049285498236    0.84314155757235
h        -4.87155727854880    7.76432528770389    3.61155806593415
h        -2.84683330391459    3.99086791032953    3.45963106791208
h        -4.73204611836376    5.31322033002354    4.22315152785678
o        -2.75847527281946    8.99134064992582    2.40754701542140
c        -1.51980199148620    9.28002805071012    1.79412654290597
h        -1.58163257350104    9.14357526624803    0.71021041517616
h        -0.75096530819420    8.62093605067093    2.19305808459648
h        -1.38776011788093   10.35583370495982    1.94441256921281
