      -----------------------------------------------------------      
     |                   =====================                   |     
     |                           x T B                           |     
     |                   =====================                   |     
     |                         S. Grimme                         |     
     |          Mulliken Center for Theoretical Chemistry        |     
     |                    University of Bonn                     |     
      -----------------------------------------------------------      

   * xtb version 6.4.1 (afa7bdf) compiled by 'ehlert@majestix' on 2021-06-10

   xtb is free software: you can redistribute it and/or modify it under
   the terms of the GNU Lesser General Public License as published by
   the Free Software Foundation, either version 3 of the License, or
   (at your option) any later version.
   
   xtb is distributed in the hope that it will be useful,
   but WITHOUT ANY WARRANTY; without even the implied warranty of
   MERCHANTABILITY or FITNESS FOR A PARTICULAR PURPOSE.  See the
   GNU Lesser General Public License for more details.
   
   Cite this work as:
   * C. Bannwarth, E. Caldeweyher, S. Ehlert, A. Hansen, P. Pracht,
     J. Seibert, S. Spicher, S. Grimme, WIREs Comput. Mol. Sci., 2020, 11,
     e01493. DOI: 10.1002/wcms.1493
   
   for GFN2-xTB:
   * C. Bannwarth, S. Ehlert and S. Grimme., J. Chem. Theory Comput., 2019,
     15, 1652-1671. DOI: 10.1021/acs.jctc.8b01176
   for GFN1-xTB:
   * S. Grimme, C. Bannwarth, P. Shushkov, J. Chem. Theory Comput., 2017,
     13, 1989-2009. DOI: 10.1021/acs.jctc.7b00118
   for GFN0-xTB:
   * P. Pracht, E. Caldeweyher, S. Ehlert, S. Grimme, ChemRxiv, 2019, preprint.
     DOI: 10.26434/chemrxiv.8326202.v1
   for GFN-FF:
   * S. Spicher and S. Grimme, Angew. Chem. Int. Ed., 2020, 59, 15665-15673.
     DOI: 10.1002/anie.202004239
   
   for DFT-D4:
   * E. Caldeweyher, C. Bannwarth and S. Grimme, J. Chem. Phys., 2017,
     147, 034112. DOI: 10.1063/1.4993215
   * E. Caldeweyher, S. Ehlert, A. Hansen, H. Neugebauer, S. Spicher,
     C. Bannwarth and S. Grimme, J. Chem. Phys., 2019, 150, 154122.
     DOI: 10.1063/1.5090222
   * E. Caldeweyher, J.-M. Mewes, S. Ehlert and S. Grimme, Phys. Chem. Chem. Phys.
     2020, 22, 8499-8512. DOI: 10.1039/D0CP00502A
   
   for sTDA-xTB:
   * S. Grimme and C. Bannwarth, J. Chem. Phys., 2016, 145, 054103.
     DOI: 10.1063/1.4959605
   
   in the mass-spec context:
   * V. Asgeirsson, C. Bauer and S. Grimme, Chem. Sci., 2017, 8, 4879.
     DOI: 10.1039/c7sc00601b
   * J. Koopman and S. Grimme, ACS Omega 2019, 4, 12, 15120-15133.
     DOI: 10.1021/acsomega.9b02011
   
   for metadynamics refer to:
   * S. Grimme, J. Chem. Theory Comput., 2019, 155, 2847-2862
     DOI: 10.1021/acs.jctc.9b00143
   
   for SPH calculations refer to:
   * S. Spicher and S. Grimme, J. Chem. Theory Comput., 2021, 17, 1701-1714
     DOI: 10.1021/acs.jctc.0c01306
   
   with help from (in alphabetical order)
   P. Atkinson, C. Bannwarth, F. Bohle, G. Brandenburg, E. Caldeweyher
   M. Checinski, S. Dohm, S. Ehlert, S. Ehrlich, I. Gerasimov, J. Koopman
   C. Lavigne, S. Lehtola, F. März, M. Müller, F. Musil, H. Neugebauer
   J. Pisarek, C. Plett, P. Pracht, J. Seibert, P. Shushkov, S. Spicher
   M. Stahn, M. Steiner, T. Strunk, J. Stückrath, T. Rose, and J. Unsleber
   
 * started run on 2022/02/24 at 13:48:53.556     

           -------------------------------------------------
          |                Calculation Setup                |
           -------------------------------------------------

          program call               : xtb coord --gfn2 --md --gbsa thf
          hostname                   : clu
          coordinate file            : coord
          omp threads                :                     4
          number of atoms            :                    38
          number of electrons        :                   112
          charge                     :                     0
          spin                       :                   0.0
          first test random number   :      0.64988052576773

   ID    Z sym.   atoms
    1    6 c      1-6, 10, 12, 14, 16, 21, 23, 25-29, 35
    2    1 h      7-9, 11, 13, 17-19, 22, 30-33, 36-38
    3    8 o      15, 20, 24, 34
########################################################################
[WARNING] Please study the warnings concerning your input carefully
-1- set_rdsetbl: Set-blocks will become obsolete in xtb 6.0 and newer
########################################################################

           -------------------------------------------------
          |                 G F N 2 - x T B                 |
           -------------------------------------------------

        Reference                      10.1021/acs.jctc.8b01176
      * Hamiltonian:
        H0-scaling (s, p, d)           1.850000    2.230000    2.230000
        zeta-weighting                 0.500000
      * Dispersion:
        s8                             2.700000
        a1                             0.520000
        a2                             5.000000
        s9                             5.000000
      * Repulsion:
        kExp                           1.500000    1.000000
        rExp                           1.000000
      * Coulomb:
        alpha                          2.000000
        third order                    shell-resolved
        anisotropic                    true
        a3                             3.000000
        a5                             4.000000
        cn-shift                       1.200000
        cn-exp                         4.000000
        max-rad                        5.000000

      * Solvation model:               GBSA
        Solvent                        thf
        Parameter file                 internal GFN2-xTB/GBSA
        Dielectric constant                7.6000E+00
        Reference state                gsolv [1 M gas/solution]
        Free energy shift                  3.3994E-03 Eh       2.1331E+00 kcal/mol
        Temperature                        3.0000E+02 K
        Density                            8.8300E-01 kg/L
        Solvent mass                       7.2106E+01 g/mol
        Interaction kernel             Still
        Born radius scaling (c1)           1.5128E+00
        Born radii integrator          GBOBC
        Born offset                        6.0704E-04 a0       1.1471E-03 AA
        H-bond correction              true
        Ion screening                  false
        Surface tension                    1.0000E-05 Eh       1.5569E+01 dyn/cm
        Grid points                               974 per atom

          ...................................................
          :                      SETUP                      :
          :.................................................:
          :  # basis functions                 104          :
          :  # atomic orbitals                 104          :
          :  # shells                           60          :
          :  # electrons                       112          :
          :  max. iterations                   250          :
          :  Hamiltonian                  GFN2-xTB          :
          :  restarted?                      false          :
          :  GBSA solvation                   true          :
          :  PC potential                    false          :
          :  electronic temp.          300.0000000     K    :
          :  accuracy                    1.0000000          :
          :  -> integral cutoff          0.2500000E+02      :
          :  -> integral neglect         0.1000000E-07      :
          :  -> SCF convergence          0.1000000E-05 Eh   :
          :  -> wf. convergence          0.1000000E-03 e    :
          :  Broyden damping             0.4000000          :
          ...................................................

 iter      E             dE          RMSdq      gap      omega  full diag
   1    -63.7717361 -0.637717E+02  0.515E+00    2.39       0.0  T
   2    -63.8544867 -0.827506E-01  0.285E+00    2.18       1.0  T
   3    -63.8431677  0.113190E-01  0.137E+00    2.44       1.0  T
   4    -63.8622201 -0.190524E-01  0.393E-01    2.28       1.0  T
   5    -63.8665319 -0.431181E-02  0.129E-01    2.32       1.0  T
   6    -63.8669688 -0.436838E-03  0.549E-02    2.31       1.0  T
   7    -63.8669854 -0.166596E-04  0.301E-02    2.31       1.0  T
   8    -63.8669941 -0.865356E-05  0.729E-03    2.32       2.2  T
   9    -63.8669945 -0.444069E-06  0.336E-03    2.32       4.8  T
  10    -63.8669946 -0.834927E-07  0.162E-03    2.32      10.0  T
  11    -63.8669946 -0.194380E-07  0.814E-04    2.32      19.9  T
  12    -63.8669946 -0.450458E-08  0.334E-04    2.32      48.6  T

   *** convergence criteria satisfied after 12 iterations ***

         #    Occupation            Energy/Eh            Energy/eV
      -------------------------------------------------------------
         1        2.0000           -0.7421396             -20.1946
       ...           ...                  ...                  ...
        50        2.0000           -0.4257792             -11.5860
        51        2.0000           -0.4157298             -11.3126
        52        2.0000           -0.4138998             -11.2628
        53        2.0000           -0.4131011             -11.2411
        54        2.0000           -0.4086903             -11.1210
        55        2.0000           -0.3878701             -10.5545
        56        2.0000           -0.3848121             -10.4713 (HOMO)
        57                         -0.2996985              -8.1552 (LUMO)
        58                         -0.2685297              -7.3071
        59                         -0.2322887              -6.3209
        60                         -0.2303582              -6.2684
        61                         -0.2220559              -6.0424
       ...                                ...                  ...
       104                          0.6928644              18.8538
      -------------------------------------------------------------
                  HL-Gap            0.0851136 Eh            2.3161 eV
             Fermi-level           -0.3422553 Eh           -9.3132 eV

 SCC (total)                   0 d,  0 h,  0 min,  0.108 sec
 SCC setup                      ...        0 min,  0.003 sec (  2.778%)
 Dispersion                     ...        0 min,  0.001 sec (  1.065%)
 classical contributions        ...        0 min,  0.000 sec (  0.100%)
 integral evaluation            ...        0 min,  0.006 sec (  6.009%)
 iterations                     ...        0 min,  0.081 sec ( 75.120%)
 molecular gradient             ...        0 min,  0.015 sec ( 14.370%)
 printout                       ...        0 min,  0.001 sec (  0.508%)

         :::::::::::::::::::::::::::::::::::::::::::::::::::::
         ::                     SUMMARY                     ::
         :::::::::::::::::::::::::::::::::::::::::::::::::::::
         :: total energy             -62.950978557266 Eh    ::
         :: total w/o Gsasa/hb       -62.929009451670 Eh    ::
         :: gradient norm              0.000919523283 Eh/a0 ::
         :: HOMO-LUMO gap              2.316059718996 eV    ::
         ::.................................................::
         :: SCC energy               -63.866994648895 Eh    ::
         :: -> isotropic ES            0.099894760990 Eh    ::
         :: -> anisotropic ES          0.000871942444 Eh    ::
         :: -> anisotropic XC          0.022188004161 Eh    ::
         :: -> dispersion             -0.037652052552 Eh    ::
         :: -> Gsolv                  -0.032034604520 Eh    ::
         ::    -> Gelec               -0.010065498925 Eh    ::
         ::    -> Gsasa               -0.023186763692 Eh    ::
         ::    -> Ghb                 -0.002181706960 Eh    ::
         ::    -> Gshift               0.003399365057 Eh    ::
         :: repulsion energy           0.916340594024 Eh    ::
         :: add. restraining           0.000000000000 Eh    ::
         :: total charge              -0.000000000000 e     ::
         :::::::::::::::::::::::::::::::::::::::::::::::::::::

           -------------------------------------------------
          |                Property Printout                |
           -------------------------------------------------

    * Orbital Energies and Occupations

         #    Occupation            Energy/Eh            Energy/eV
      -------------------------------------------------------------
         1        2.0000           -0.7421396             -20.1946
       ...           ...                  ...                  ...
        44        2.0000           -0.4519716             -12.2988
        45        2.0000           -0.4498949             -12.2423
        46        2.0000           -0.4459716             -12.1355
        47        2.0000           -0.4458086             -12.1311
        48        2.0000           -0.4421693             -12.0320
        49        2.0000           -0.4304695             -11.7137
        50        2.0000           -0.4257792             -11.5860
        51        2.0000           -0.4157298             -11.3126
        52        2.0000           -0.4138998             -11.2628
        53        2.0000           -0.4131011             -11.2411
        54        2.0000           -0.4086903             -11.1210
        55        2.0000           -0.3878701             -10.5545
        56        2.0000           -0.3848121             -10.4713 (HOMO)
        57                         -0.2996985              -8.1552 (LUMO)
        58                         -0.2685297              -7.3071
        59                         -0.2322887              -6.3209
        60                         -0.2303582              -6.2684
        61                         -0.2220559              -6.0424
        62                         -0.1891174              -5.1461
        63                         -0.1627173              -4.4278
        64                         -0.0920373              -2.5045
        65                         -0.0887380              -2.4147
        66                          0.0137015               0.3728
        67                          0.0261242               0.7109
       ...                                ...                  ...
       104                          0.6928644              18.8538
      -------------------------------------------------------------
                  HL-Gap            0.0851136 Eh            2.3161 eV
             Fermi-level           -0.3422553 Eh           -9.3132 eV

     #   Z          covCN         q      C6AA      α(0)
     1   6 c        2.922    -0.019    28.483     8.752
     2   6 c        2.972    -0.022    28.547     8.764
     3   6 c        2.918    -0.026    28.644     8.777
     4   6 c        2.924    -0.034    28.855     8.809
     5   6 c        2.972     0.037    27.162     8.549
     6   6 c        2.921    -0.018    28.452     8.747
     7   1 h        0.926     0.048     2.344     2.394
     8   1 h        0.926     0.069     2.093     2.263
     9   1 h        0.926     0.059     2.208     2.324
    10   6 c        2.899    -0.012    28.314     8.725
    11   1 h        0.925     0.081     1.973     2.197
    12   6 c        2.892    -0.067    29.673     8.931
    13   1 h        0.926     0.058     2.225     2.332
    14   6 c        2.726     0.350    21.052     7.511
    15   8 o        1.704    -0.257    18.255     5.769
    16   6 c        3.651     0.017    20.608     6.520
    17   1 h        0.925     0.090     1.877     2.143
    18   1 h        0.924     0.069     2.096     2.264
    19   1 h        0.924     0.068     2.106     2.269
    20   8 o        0.856    -0.461    22.946     6.422
    21   6 c        2.824     0.234    23.099     7.875
    22   1 h        0.926     0.067     2.121     2.277
    23   6 c        2.972    -0.013    28.330     8.731
    24   8 o        0.857    -0.412    21.928     6.278
    25   6 c        2.919    -0.046    29.143     8.853
    26   6 c        2.919    -0.034    28.844     8.807
    27   6 c        2.917    -0.065    29.630     8.926
    28   6 c        2.862     0.148    24.776     8.159
    29   6 c        2.927    -0.049    29.205     8.862
    30   1 h        0.926     0.055     2.264     2.353
    31   1 h        0.926     0.052     2.289     2.366
    32   1 h        0.926     0.047     2.359     2.402
    33   1 h        0.926     0.054     2.274     2.358
    34   8 o        1.705    -0.270    18.473     5.803
    35   6 c        3.643     0.021    20.566     6.520
    36   1 h        0.924     0.051     2.310     2.377
    37   1 h        0.925     0.078     1.999     2.211
    38   1 h        0.924     0.051     2.303     2.373

 Mol. C6AA /au·bohr⁶  :      18079.532077
 Mol. C8AA /au·bohr⁸  :     438922.784861
 Mol. α(0) /au        :        211.992615


Wiberg/Mayer (AO) data.
largest (>0.10) Wiberg bond orders for each atom

 ---------------------------------------------------------------------------
     #   Z sym  total        # sym  WBO       # sym  WBO       # sym  WBO
 ---------------------------------------------------------------------------
     1   6 c    3.989 --     6 c    1.468     2 c    1.376    13 h    0.965
     2   6 c    3.986 --     3 c    1.378     1 c    1.376    14 c    1.012
     3   6 c    3.988 --     4 c    1.468     2 c    1.378     8 h    0.964
                             6 c    0.102
     4   6 c    3.988 --     3 c    1.468     5 c    1.373     9 h    0.968
     5   6 c    3.988 --     6 c    1.374     4 c    1.373    10 c    1.065
     6   6 c    3.990 --     1 c    1.468     5 c    1.374     7 h    0.969
                             3 c    0.102
     7   1 h    0.997 --     6 c    0.969
     8   1 h    0.994 --     3 c    0.964
     9   1 h    0.996 --     4 c    0.968
    10   6 c    3.979 --    12 c    1.811     5 c    1.065    11 h    0.949
    11   1 h    0.992 --    10 c    0.949
    12   6 c    3.983 --    10 c    1.811    21 c    1.054    22 h    0.960
    13   1 h    0.996 --     1 c    0.965
    14   6 c    3.914 --    20 o    1.688    15 o    1.137     2 c    1.012
    15   8 o    2.313 --    14 c    1.137    16 c    0.952    20 o    0.168
    16   6 c    3.916 --    17 h    0.979    18 h    0.976    19 h    0.976
                            15 o    0.952
    17   1 h    0.992 --    16 c    0.979
    18   1 h    0.995 --    16 c    0.976
    19   1 h    0.995 --    16 c    0.976
    20   8 o    1.988 --    14 c    1.688    15 o    0.168
    21   6 c    3.923 --    24 o    1.758    12 c    1.054    23 c    1.011
    22   1 h    0.995 --    12 c    0.960
    23   6 c    3.986 --    29 c    1.415    25 c    1.364    21 c    1.011
    24   8 o    2.030 --    21 c    1.758
    25   6 c    3.988 --    26 c    1.456    23 c    1.364    32 h    0.966
    26   6 c    3.990 --    25 c    1.456    27 c    1.432    33 h    0.969
                            29 c    0.104
    27   6 c    3.985 --    26 c    1.432    28 c    1.365    31 h    0.965
    28   6 c    3.939 --    27 c    1.365    29 c    1.353    34 o    1.077
    29   6 c    3.987 --    23 c    1.415    28 c    1.353    30 h    0.966
                            26 c    0.104
    30   1 h    0.997 --    29 c    0.966
    31   1 h    0.997 --    27 c    0.965
    32   1 h    0.998 --    25 c    0.966
    33   1 h    0.996 --    26 c    0.969
    34   8 o    2.242 --    28 c    1.077    35 c    0.976
    35   6 c    3.936 --    37 h    0.978    36 h    0.976    38 h    0.976
                            34 o    0.976
    36   1 h    0.997 --    35 c    0.976
    37   1 h    0.993 --    35 c    0.978
    38   1 h    0.997 --    35 c    0.976
 ---------------------------------------------------------------------------

Topologies differ in total number of bonds
Writing topology from bond orders to xtbtopo.mol

molecular dipole:
                 x           y           z       tot (Debye)
 q only:        1.738       1.564      -0.360
   full:        1.796       1.738      -0.341       6.410
molecular quadrupole (traceless):
                xx          xy          yy          xz          yz          zz
 q only:      -37.360     -14.486      55.662       0.822       4.559     -18.303
  q+dip:      -38.295     -14.337      61.529       0.845       6.489     -23.234
   full:      -40.859     -14.991      59.200       1.364       6.277     -18.341


           -------------------------------------------------
          | TOTAL ENERGY              -62.950978557266 Eh   |
          | GRADIENT NORM               0.000919523283 Eh/α |
          | HOMO-LUMO GAP               2.316059718996 eV   |
           -------------------------------------------------
           ------------------------------------------------- 
          |                  Meta Dynamics                  |
           ------------------------------------------------- 
 trajectories on xtb.trj or xtb.trj.<n>
 
 MD time /ps        :    1.00
 dt /fs             :    1.50
 SCC accuracy       :    2.00
 temperature /K     :  300.00
 max steps          :   666
 block length (av.) :  3333
 dumpstep(trj) /fs  :  100.00    66
 dumpstep(coords)/fs:10000.00  6666
 H atoms mass (amu) :     5
 # deg. of freedom  :    75
 SHAKE on. # bonds  :          39  all: T
 Berendsen THERMOSTAT on
 --- metadynamics parameter ---
 kpush  :    0.114
 alpha  :    0.500
 update :     100
         time (ps)    <Epot>      Ekin   <T>   T     Etot
      0    0.00      0.00000   0.0806    0.    0.   -62.86864
est. speed in wall clock h for 100 ps :  8.69
    200    0.30    -62.58165   0.0644  552.  543.   -62.82718
    400    0.60    -62.73646   0.0588  524.  496.   -62.83996
    600    0.90    -62.79298   0.0477  512.  401.   -62.85496
 average properties 
 Epot               :  -62.8047393462170     
 Epot (accurate SCC):  -62.8986549423150     
 Ekin               :  6.027889151127139E-002
 Etot               :  -62.7444604547057     
 T                  :   507.588970756710     
 thermostating problem
 normal exit of md()

------------------------------------------------------------------------
 * finished run on 2022/02/24 at 13:53:01.656     
------------------------------------------------------------------------
 total:
 * wall-time:     0 d,  0 h,  4 min,  8.099 sec
 *  cpu-time:     0 d,  0 h,  3 min,  8.518 sec
 * ratio c/w:     0.760 speedup
 SCF:
 * wall-time:     0 d,  0 h,  0 min,  0.108 sec
 *  cpu-time:     0 d,  0 h,  0 min,  0.431 sec
 * ratio c/w:     3.985 speedup
 MD:
 * wall-time:     0 d,  0 h,  4 min,  7.481 sec
 *  cpu-time:     0 d,  0 h,  3 min,  7.467 sec
 * ratio c/w:     0.757 speedup

