39
 energy: -67.043718623219 gnorm: 0.084005852547 xtb: 6.4.1 (afa7bdf)
C        -3.78701052740000    1.34192218130000   -0.05668154510000
C        -3.99332405750000   -0.03903697440000   -0.01925868350000
C        -2.88375467490000   -0.88902146460000    0.03381287820000
C        -1.58368041070000   -0.36473832030000    0.05772094690000
C        -1.35655377050000    1.02058918370000    0.01604905720000
C        -2.48462150360000    1.85914396390000   -0.03998441060000
H        -2.36022128300000    2.94130879990000   -0.06170633430000
H        -4.62389123370000    2.03499498350000   -0.09128716180000
H        -3.02386278410000   -1.96824586600000    0.06979511870000
H        -0.76230596970000   -1.07143111090000    0.13027163690000
C         0.00442362430000    1.61814401780000    0.07966130190000
C         1.13776950550000    0.93526807980000   -0.17437083800000
O         0.01138707820000    2.95864106320000    0.43312231260000
C         2.47513825690000    1.57778114620000   -0.03838422870000
C         3.71231853740000    0.74108942550000   -0.03663059680000
H         1.10800009700000   -0.09608507210000   -0.48900208120000
H         0.93882779140000    3.28260307930000    0.38256747670000
O         2.55789510410000    2.80023292970000    0.08352288210000
C         3.70201096010000   -0.65596895390000    0.06363958470000
C         4.94637540950000    1.41551115090000   -0.09704448870000
C         6.14909035470000    0.70789117980000   -0.06680355800000
C         6.11909420020000   -0.68474493440000    0.01191156190000
H         4.94257174150000    2.49991157650000   -0.16333979270000
C         4.90452977830000   -1.36568075590000    0.07946803680000
H         7.05302577960000   -1.24237931080000    0.03270395060000
H         4.89878925570000   -2.45060962990000    0.15545301710000
H         2.78306110210000   -1.22529924600000    0.15015318060000
C        -5.35037460290000   -0.65037706320000   -0.02143449480000
O        -5.54465611110000   -1.85548226740000   -0.01156416450000
O        -6.30995882820000    0.30846601960000   -0.02823134090000
C        -7.64261355590000   -0.20515117170000   -0.01681931800000
H        -7.82841063360000   -0.80961672290000   -0.91015173310000
H        -8.33267800800000    0.64311228950000   -0.02313073080000
H        -7.82071311190000   -0.78945566550000    0.89148291060000
O         7.40344959410000    1.25071050640000   -0.10766559180000
C         7.49312615530000    2.67015149840000   -0.06307434860000
H         8.55409763860000    2.93726595240000   -0.04205736680000
H         7.03190315500000    3.06858196980000    0.84690893300000
H         7.05378024910000    3.11927569340000   -0.95962203110000
39
 energy: -67.050724033775 gnorm: 0.040920534466 xtb: 6.4.1 (afa7bdf)
C        -3.76455987230043    1.34578134526367   -0.05477500760634
C        -3.97264304142302   -0.03136051289449   -0.01936781591491
C        -2.86451412568307   -0.87779025420441    0.03339126202334
C        -1.57752793699043   -0.36242728621982    0.05807956010928
C        -1.35618118641732    1.01739190353367    0.02188458611377
C        -2.47539881205841    1.85647142046837   -0.03561892657503
H        -2.33960014601710    2.92889597904988   -0.06283055344514
H        -4.60307133913763    2.02607864615545   -0.09373252694785
H        -3.01592947155438   -1.94822297839422    0.06834890342990
H        -0.75486606543469   -1.05823026044259    0.12812191414422
C        -0.00169751506647    1.61356155571523    0.07657095203413
C         1.15031938398384    0.93612459664916   -0.16640195189542
O        -0.01021153833392    2.92653092328117    0.41633160088850
C         2.47147878047885    1.57148800738609   -0.03643375156992
C         3.70328711110441    0.73459114410070   -0.04128291995749
H         1.11899798465553   -0.09302398929273   -0.47306401511034
H         0.92144584821108    3.25386226228277    0.37838599726994
O         2.56615119623061    2.79586620492373    0.10130921804261
C         3.69602644619007   -0.65582447395035    0.05843115639743
C         4.93132490229356    1.40836092441035   -0.09493910475078
C         6.13179149193413    0.70771351076861   -0.06470935498791
C         6.10295937670607   -0.68546832622820    0.01296022323930
H         4.91905687431942    2.48708370698167   -0.16052926214478
C         4.89438152210339   -1.35621908494033    0.07889635078355
H         7.03624303882795   -1.23149645111846    0.03163421819551
H         4.88887740540830   -2.43425200534273    0.15426325791449
H         2.77676767857361   -1.21400461019895    0.14381102437615
C        -5.33201309616961   -0.63524262271124   -0.02039026001199
O        -5.53594174301542   -1.82918545647218   -0.01154924817355
O        -6.30462994949895    0.29441275245859   -0.02804099213965
C        -7.64079164427723   -0.20505371956996   -0.01760862879284
H        -7.82091085789819   -0.82049352807533   -0.90152268659269
H        -8.30587123355797    0.65941078155615   -0.02460748728490
H        -7.81380383856729   -0.79992029848894    0.88173545255187
O         7.37822827633719    1.26204185063281   -0.10364958425636
C         7.48470383660224    2.67481571665666   -0.06616694711270
H         8.55222995600700    2.90422926298514   -0.04557952489530
H         7.01673140960466    3.07698458565285    0.83644906956234
H         7.04119519572964    3.12579093823222   -0.95780425021044
39
 energy: -67.052729255162 gnorm: 0.010815596306 xtb: 6.4.1 (afa7bdf)
C        -3.74393687841956    1.35133726517823   -0.05389116146337
C        -3.95169230098995   -0.02538485521952   -0.01789437166795
C        -2.84604391847187   -0.87368891220326    0.03495974687552
C        -1.56533302255223   -0.36440465595446    0.05522465263990
C        -1.34918267431912    1.01431367094925    0.01897228993693
C        -2.46170526241551    1.85819677449595   -0.03766100560052
H        -2.31171222314085    2.92485766337661   -0.06448218260761
H        -4.58830744276039    2.01951448209060   -0.09530940952198
H        -3.01194718367972   -1.93899870747690    0.06703795136238
H        -0.73701207499653   -1.04899525415432    0.12359000499623
C        -0.00306658207951    1.61580730372447    0.07301288963129
C         1.15992272656333    0.93544043999060   -0.15516355784810
O        -0.01587231913548    2.90612839204167    0.39380648091208
C         2.45910908225753    1.56600787490821   -0.02206916020318
C         3.68773974785948    0.72942058451250   -0.04216151056295
H         1.12259624917375   -0.09575337311851   -0.44843689068710
H         0.91966915009722    3.23612678400386    0.37664914848803
O         2.56350040499526    2.79346158947816    0.13463928173856
C         3.68136588449853   -0.65844224017648    0.05434128032344
C         4.91261107446548    1.40342459354653   -0.09405461044811
C         6.11158986193852    0.70660114665093   -0.06457030042635
C         6.08479830582637   -0.68839378517229    0.01220604274985
H         4.89239587476488    2.47980109335099   -0.15566841241202
C         4.87889255811901   -1.35314597223634    0.07560362515471
H         7.02069943092962   -1.22263334643621    0.03125687542654
H         4.87299856521287   -2.42824790235954    0.15173713092629
H         2.75926491366503   -1.20737470004913    0.13508333889929
C        -5.31048169010112   -0.62436953250005   -0.02075271119332
O        -5.52600525124931   -1.81553826621204   -0.00997906646711
O        -6.28834979791500    0.28654673744413   -0.02866940328887
C        -7.62707943054925   -0.20498773530601   -0.01875996285210
H        -7.80776867824749   -0.82639852382010   -0.89758541003591
H        -8.26891390790795    0.67273076715627   -0.02676454229162
H        -7.80176483323976   -0.80523819979832    0.87590369441595
O         7.35073186714548    1.26960380377473   -0.10011667204385
C         7.46739996836707    2.67820250885518   -0.07142285399693
H         8.53832317556216    2.87826538096404   -0.05127941384460
H         6.99828061828337    3.09264297789061    0.82478540289140
H         7.02632031434561    3.13283628840995   -0.96211728120490
39
 energy: -67.053086635830 gnorm: 0.004964185779 xtb: 6.4.1 (afa7bdf)
C        -3.73717625706405    1.35279417117374   -0.05606744233920
C        -3.94122682372624   -0.02505327364618   -0.01907904353007
C        -2.83658148290913   -0.87539370893041    0.03288487726911
C        -1.55598484620961   -0.36558530236517    0.05372105358693
C        -1.34417637081356    1.01430864947095    0.01793871400856
C        -2.45545026878276    1.86044155069641   -0.03938749270913
H        -2.29949822177850    2.92658377589461   -0.06784921105135
H        -4.58540046385712    2.01659546981220   -0.09654083433866
H        -3.00757227570064   -1.94020931824170    0.06658568056969
H        -0.72335097063986   -1.04552869240230    0.12065877389632
C        -0.00220071769648    1.62092971447033    0.07360114256996
C         1.16034593840043    0.93333142714856   -0.14669412660457
O        -0.01109443203876    2.91065802989661    0.37980947669887
C         2.45117046074407    1.56313046043387   -0.00991634456301
C         3.67886759241839    0.72711135832089   -0.03775425203868
H         1.11837146486065   -0.10037227566883   -0.43076373528828
H         0.92813841396891    3.23800641188198    0.37491048743617
O         2.55740503856214    2.79095772941912    0.16317248665821
C         3.67108261042741   -0.66149352964524    0.05283915000875
C         4.90252125070159    1.40210481094902   -0.09035224615328
C         6.10089358632293    0.70537800882754   -0.06384019310443
C         6.07483174427412   -0.69054413339524    0.01097645879670
H         4.87885638702314    2.47889006344401   -0.14905781089416
C         4.86894160386014   -1.35598148406099    0.07210491009193
H         7.01273550026088   -1.22121433890165    0.02968062244069
H         4.86214489497934   -2.43190384112153    0.14593379917450
H         2.74738209046332   -1.20856137486809    0.13076378447780
C        -5.29795165608754   -0.62316794934355   -0.01896786311510
O        -5.51538614745971   -1.81597933443292   -0.00846628198575
O        -6.27477429649837    0.28657246334229   -0.02920033377650
C        -7.61417156225870   -0.20327584053527   -0.02039255080357
H        -7.79497779476166   -0.82530709874138   -0.89900115654958
H        -8.25016140101356    0.67741200894540   -0.02956278244881
H        -7.79063127429986   -0.80310013680198    0.87444740573348
O         7.33778436389167    1.27049469046891   -0.09901068991409
C         7.45419137811732    2.67884498010957   -0.07707295386177
H         8.52462820895347    2.87529671124258   -0.05728664997941
H         6.98510315223529    3.10074325850736    0.81624202752110
H         7.01440588503085    3.13135804924650   -0.97000690918951
39
 energy: -67.053309071533 gnorm: 0.004610657135 xtb: 6.4.1 (afa7bdf)
C        -3.73251966073180    1.35357670107170   -0.05925646195791
C        -3.92932286941917   -0.02591109127997   -0.02043671769987
C        -2.82468232709773   -0.87682052005825    0.03165686991409
C        -1.54463156589659   -0.36348896283994    0.05215107554898
C        -1.33983090560189    1.01810435581412    0.01551649620263
C        -2.45160977021704    1.86453657231744   -0.04301832193399
H        -2.29147728656064    2.93075351759620   -0.07187356768900
H        -4.58520880474478    2.01246113448114   -0.09993807961183
H        -2.99774239938995   -1.94194631360092    0.06475149150257
H        -0.70735935058540   -1.03859222632214    0.11896014651046
C        -0.00211156422876    1.63032006803479    0.07239923235403
C         1.15803644272118    0.93177411276490   -0.13383297395664
O        -0.00368827295128    2.92351693384368    0.35947776184298
C         2.44310354423023    1.55864902333276    0.01499375624140
C         3.67011776260774    0.72381469006665   -0.02672994351691
H         1.11089220504738   -0.10479650227632   -0.40579001977064
H         0.94296190808286    3.24179511830563    0.37089652647239
O         2.55050926563903    2.78597745944084    0.20544282810697
C         3.66049454431623   -0.66621414410910    0.05338587093828
C         4.89223330250432    1.40012084624290   -0.08241618741267
C         6.09010339112620    0.70279015191987   -0.06223306552692
C         6.06437242283859   -0.69387263351887    0.00775607856569
H         4.86485548676759    2.47772644136218   -0.13544321473291
C         4.85854202419079   -1.36147208948204    0.06629759981638
H         7.00396824730188   -1.22252426516730    0.02409785144777
H         4.85051257265152   -2.43885987071855    0.13378062718027
H         2.73591663808517   -1.21316823230980    0.12849230618674
C        -5.28310560520208   -0.62472002665850   -0.02101037276752
O        -5.49984094176032   -1.81935666248191   -0.00597286064109
O        -6.25761789052513    0.28705692362066   -0.03189954667392
C        -7.59757126114143   -0.20104722827156   -0.02287107080456
H        -7.77851641391760   -0.82268881760350   -0.90195947723475
H        -8.23084005337823    0.68095478181241   -0.03315643491669
H        -7.77512475990610   -0.79907887932276    0.87318662057997
O         7.32517540740721    1.26973634408773   -0.09844174899346
C         7.43632870880471    2.67876672966248   -0.08707964357516
H         8.50514945657064    2.87962298601556   -0.06843028584138
H         6.96611755563955    3.10825492520300    0.80262424972082
H         6.99544511862302    3.12352080962481   -0.98407744717487
39
 energy: -67.053375550326 gnorm: 0.003590962309 xtb: 6.4.1 (afa7bdf)
C        -3.73208517291091    1.35382148235352   -0.06188034096947
C        -3.92476762153230   -0.02633071439741   -0.02265014547398
C        -2.81906881006925   -0.87561570006427    0.02949571252240
C        -1.54021517157904   -0.35917432705764    0.05099642094284
C        -1.33904776867040    1.02299826817580    0.01388595433418
C        -2.45225165185382    1.86768202883935   -0.04528697612817
H        -2.29272150761843    2.93410377135706   -0.07417289926573
H        -4.58641601934412    2.01050825449013   -0.10249006097840
H        -2.99015590639078   -1.94109181360709    0.06366598949192
H        -0.70189378937740   -1.03276483293395    0.11935367342473
C        -0.00223032753052    1.63573344941517    0.07285929755032
C         1.15667206267916    0.93235086074061   -0.12432858721383
O        -0.00050052796416    2.93136369480169    0.34935760528640
C         2.44194138700706    1.55680608502163    0.02876646232173
C         3.66802182295941    0.72180724634744   -0.01610671415357
H         1.10798291741015   -0.10478790938966   -0.39179861018607
H         0.95103935236716    3.24204649228411    0.36810252332447
O         2.54949840387728    2.78291247377004    0.22923872536878
C         3.65774357157955   -0.66882569566899    0.05680251250314
C         4.88949508443952    1.39837142129714   -0.07392752642736
C         6.08730173495115    0.70056970094577   -0.06040080587982
C         6.06136199152195   -0.69618547369193    0.00449714390805
H         4.86084320721267    2.47614978187508   -0.12340460227238
C         4.85567982879321   -1.36469848511721    0.06285647011861
H         7.00088695322367   -1.22544901788186    0.01694049575488
H         4.84730018875828   -2.44260498996951    0.12444523264024
H         2.73350479970506   -1.21667996963621    0.13109297440618
C        -5.27755261117940   -0.62674476605556   -0.02017205897019
O        -5.49281264545277   -1.82154643528785   -0.00509001358117
O        -6.25119518819094    0.28647021991553   -0.03387330848283
C        -7.59115549464286   -0.20100337006195   -0.02521111129899
H        -7.77159254983828   -0.82291162312315   -0.90418190163050
H        -8.22512682729430    0.68072587404256   -0.03666728656879
H        -7.76904624998435   -0.79738610556823    0.87182008537051
O         7.32179878716515    1.26859960651081   -0.09916969706904
C         7.42712940128141    2.67833934953806   -0.09470071329418
H         8.49490438741581    2.88583988081809   -0.07813446138714
H         6.95587787507086    3.11012610481556    0.79331110628553
H         6.98288638590543    3.11574734275734   -0.99384061762371
39
 energy: -67.053427357476 gnorm: 0.001746216049 xtb: 6.4.1 (afa7bdf)
C        -3.73251795141673    1.35465738596881   -0.06498486199428
C        -3.92169037133223   -0.02588323064201   -0.02526629229210
C        -2.81425764788454   -0.87225078612996    0.02838658567729
C        -1.53705950675662   -0.35223581261083    0.05011487013591
C        -1.33891146685012    1.03020203653936    0.01179768933962
C        -2.45413019897388    1.87195897529638   -0.04825361076469
H        -2.29727732536626    2.93874168593489   -0.07715013520468
H        -4.58792190209964    2.00948534908054   -0.10626989003649
H        -2.98132373567421   -1.93827247138186    0.06232546379887
H        -0.69864660532235   -1.02513544324094    0.12003822498643
C        -0.00202824557938    1.64204869574819    0.07263458456105
C         1.15614434453553    0.93417229071135   -0.11154241160373
O         0.00247149187548    2.93965689871046    0.33958994319792
C         2.44288483290716    1.55492644934411    0.04958356417120
C         3.66747665064965    0.71891240500549   -0.00143434464674
H         1.10752325076171   -0.10360319941385   -0.37451786890043
H         0.95907611151181    3.24154040762689    0.36506115111973
O         2.55088013915904    2.77966428825884    0.25544005861132
C         3.65707706529036   -0.67208940710505    0.06275111562783
C         4.88846830151609    1.39545100108227   -0.06212793153552
C         6.08651530536966    0.69751959664851   -0.05799411638440
C         6.06040313335438   -0.69919036485813   -0.00070758712011
H         4.85885843736803    2.47324628372188   -0.10595509608089
C         4.85494098560687   -1.36821513964382    0.05928947999474
H         6.99919569162329   -1.23011208181337    0.00404570396895
H         4.84669862936700   -2.44637020543305    0.11291351776148
H         2.73374829603773   -1.22120801178943    0.13836121591481
C        -5.27389758315113   -0.62901310661958   -0.02358458415541
O        -5.48711753805010   -1.82342313830839   -0.00442187416055
O        -6.24756075152933    0.28487811789847   -0.03820740076744
C        -7.58712443493301   -0.20269612678423   -0.02824008391973
H        -7.76747939084441   -0.82532747311436   -0.90658153371124
H        -8.22283790085097    0.67824431668350   -0.04064763251750
H        -7.76441195779923   -0.79754334825526    0.86979693555520
O         7.32037876922936    1.26735406519070   -0.10098652699494
C         7.41771137641606    2.67794359609274   -0.10525747119534
H         8.48433608409253    2.89429951108145   -0.09303308255486
H         6.94590034623969    3.11154686052927    0.78129609965691
H         6.96753957340252    3.10539129059003   -1.00626192083872
39
 energy: -67.053454026560 gnorm: 0.002247049039 xtb: 6.4.1 (afa7bdf)
C        -3.73299430318789    1.35667964944465   -0.06828488536473
C        -3.92185445279187   -0.02370829171651   -0.02853150460971
C        -2.81311071898649   -0.86779292749975    0.02629455886911
C        -1.53695388896267   -0.34611046662557    0.04938166798700
C        -1.33892206654010    1.03610144349535    0.01119398532993
C        -2.45536288186944    1.87575069077943   -0.05055650887725
H        -2.30184163470653    2.94293856111885   -0.07961930826772
H        -4.58828854130184    2.01124364086489   -0.11034588548987
H        -2.97653923149559   -1.93418631910469    0.06114970742265
H        -0.69953003083482   -1.01964108260767    0.12069385547169
C        -0.00072352232026    1.64535864676408    0.07604815068621
C         1.15734891717550    0.93541122097448   -0.09764382598492
O         0.00431881304272    2.94449727134215    0.33566201554058
C         2.44559133936320    1.55420252429456    0.06493435380083
C         3.66860176365545    0.71624759474466    0.01347338484161
H         1.11016289457912   -0.10303785173685   -0.35782985182958
H         0.96266065057805    3.24214104569231    0.36342704897204
O         2.55382884936429    2.77794658064958    0.27505162940278
C         3.65883842103702   -0.67476935837496    0.07086415507262
C         4.88957594742993    1.39245076193616   -0.04931876992194
C         6.08805081539398    0.69501752418663   -0.05597442443922
C         6.06212475861135   -0.70169529436888   -0.00714587790139
H         4.85967608807629    2.47012141514253   -0.08746068490237
C         4.85679941869653   -1.37045072220554    0.05704969747373
H         6.99990275978221   -1.23435444820538   -0.01200456060654
H         4.84934733670378   -2.44853630103392    0.10376724785226
H         2.73650341741994   -1.22499174140313    0.14901445622371
C        -5.27408312675615   -0.62936389507780   -0.02529306354156
O        -5.48552591459353   -1.82329495331213   -0.00520904072081
O        -6.24936663188177    0.28309497371612   -0.04303737117664
C        -7.58800941007179   -0.20635447227987   -0.03230773056514
H        -7.76781237889229   -0.83092824535443   -0.90931775135328
H        -8.22574538759306    0.67337927090679   -0.04609493660891
H        -7.76449078488525   -0.80007413084345    0.86657329652643
O         7.32116656642722    1.26700019320700   -0.10422076371631
C         7.41242607937379    2.67804316500401   -0.11628503980568
H         8.47828363864255    2.90033008751969   -0.11105470520126
H         6.94290482941232    3.11340799341335    0.77028288033912
H         6.95507590480592    3.09719840715329   -1.01732565422818
39
 energy: -67.053468163013 gnorm: 0.001749380223 xtb: 6.4.1 (afa7bdf)
C        -3.73289610971131    1.35811338928473   -0.06959825940095
C        -3.92292572863561   -0.02208458398978   -0.02958201244862
C        -2.81432554253930   -0.86638030059381    0.02607263624833
C        -1.53794936013509   -0.34532525355082    0.04974737873721
C        -1.33888145405862    1.03676461164663    0.01186488786950
C        -2.45499189148734    1.87667751526252   -0.05106554638857
H        -2.30187899874696    2.94393489864148   -0.08039349517853
H        -4.58781705666296    2.01323825238724   -0.11252036251783
H        -2.97772030832137   -1.93278449216899    0.06055263552093
H        -0.70084695619396   -1.01931784943000    0.12094637669052
C        -0.00028263563551    1.64543776062630    0.07769353455804
C         1.15810454875170    0.93509055064971   -0.09219323129516
O         0.00442031533010    2.94466655990714    0.33650024938447
C         2.44618827947509    1.55376626557861    0.07153470809037
C         3.66913377135403    0.71542778557127    0.01807662770550
H         1.11173731007223   -0.10404120184127   -0.35064088524268
H         0.96194899095128    3.24319390104257    0.36555386904518
O         2.55489996634821    2.77779056401492    0.27866770805048
C         3.65992172146164   -0.67558253088912    0.07408287767417
C         4.89013021291701    1.39166708812069   -0.04582278585834
C         6.08876339555404    0.69475258302471   -0.05604841924264
C         6.06325549894108   -0.70206473133725   -0.00982026015765
H         4.86020426918363    2.46940660105385   -0.08142386400343
C         4.85803291580186   -1.37072513340530    0.05688020978700
H         7.00088965985111   -1.23476255735932   -0.01872174120170
H         4.85103633623208   -2.44882883264594    0.10212232116940
H         2.73787476626517   -1.22602689986765    0.15399296197640
C        -5.27505469329091   -0.62814660840685   -0.02749058584868
O        -5.48601144071171   -1.82222896026233   -0.00596737617920
O        -6.25146111685042    0.28292124922827   -0.04563491408523
C        -7.58955848720456   -0.20816571587927   -0.03411808589875
H        -7.76905480642122   -0.83376627781547   -0.91050558350722
H        -8.22795677297324    0.67094829570517   -0.04829507184073
H        -7.76523324285510   -0.80180048970059    0.86504198872337
O         7.32145064793060    1.26747413218659   -0.10619484899737
C         7.41248147005138    2.67840552876884   -0.12051032504014
H         8.47831808048692    2.90023154601143   -0.11936334516463
H         6.94608177048528    3.11515599789477    0.76702874462996
H         6.95200697689054    3.09623950313640   -1.02044876966357
39
 energy: -67.053490915784 gnorm: 0.001158463371 xtb: 6.4.1 (afa7bdf)
C        -3.73257386080498    1.36263149470140   -0.07383112927498
C        -3.92650025371925   -0.01702187889253   -0.03313611151115
C        -2.81915684637308   -0.86329825076148    0.02470566772281
C        -1.54157031125244   -0.34527511252165    0.05089070507725
C        -1.33890680406187    1.03651880033480    0.01490222724454
C        -2.45325225278168    1.87848110068056   -0.05224848316868
H        -2.29958428951630    2.94573516389634   -0.08194364623968
H        -4.58612848730259    2.01989878660315   -0.11977595153147
H        -2.98445878230292   -1.92950851098434    0.05805135218781
H        -0.70539525747695   -1.02069251790318    0.12234862314393
C         0.00056191179853    1.64357714977423    0.08632571020278
C         1.15976767310332    0.93261408788767   -0.07483198941253
O         0.00358568083543    2.94397236213029    0.34040974584916
C         2.44727049420246    1.55262261443669    0.08572226258282
C         3.67063079564524    0.71385449205719    0.03083565971441
H         1.11493311235404   -0.10820075146459   -0.32834264243603
H         0.95759859678209    3.24700857483732    0.37384087874415
O         2.55717934488033    2.77771042225495    0.28623016116119
C         3.66306690132199   -0.67734209214279    0.08360895335783
C         4.89147979880996    1.39052762865033   -0.03624278399150
C         6.09047962225966    0.69495726912607   -0.05702450821340
C         6.06639915200827   -0.70226327814226   -0.01735143691171
H         4.86148950866010    2.46852046264961   -0.06605206652979
C         4.86165170801739   -1.37106882185404    0.05677448632463
H         7.00407064284621   -1.23426692529186   -0.03715030875517
H         4.85590487469597   -2.44943992266807    0.09877466271509
H         2.74176402702170   -1.22851264471464    0.16806171696073
C        -5.27806708351704   -0.62341335189668   -0.03331949413317
O        -5.48753905110707   -1.81831230973177   -0.00893163621880
O        -6.25760297105344    0.28363357889053   -0.05326296121822
C        -7.59398026292163   -0.21302906311469   -0.03966712501232
H        -7.77185907509144   -0.84172792895104   -0.91432317448767
H        -8.23486815788030    0.66380317937640   -0.05509542904217
H        -7.76670819233547   -0.80630184707445    0.86052488658403
O         7.32205572566894    1.26903833169973   -0.11282800351690
C         7.41480006587960    2.67948337022182   -0.13261060698815
H         8.48093428696981    2.89780619361820   -0.14569279067752
H         6.96075670067970    3.12074981529788    0.75938053179657
H         6.94380561695746    3.09580248958500   -1.02772600539974
39
 energy: -67.053500154798 gnorm: 0.000920057900 xtb: 6.4.1 (afa7bdf)
C        -3.73262787183541    1.36364979454984   -0.07594996079974
C        -3.92626798638870   -0.01605835320929   -0.03539410752623
C        -2.81933380430865   -0.86288635636436    0.02333995121783
C        -1.54170451031320   -0.34518783948565    0.05209339369695
C        -1.33915120079468    1.03672460186061    0.01694395948079
C        -2.45316157852695    1.87910895255933   -0.05216455012354
H        -2.29833186444026    2.94619315246933   -0.08180223164378
H        -4.58605949513388    2.02096905042944   -0.12303498205763
H        -2.98576773986905   -1.92894548982133    0.05659560163764
H        -0.70568680500855   -1.02067078932326    0.12446309341982
C        -0.00003078928396    1.64396659523939    0.08990857391895
C         1.15926571347540    0.93171471946339   -0.06604618227453
O         0.00317168981378    2.94506882875203    0.34015731109131
C         2.44689026850914    1.55147358213940    0.09504236446160
C         3.67060034956081    0.71331715720992    0.03670118715060
H         1.11408302717192   -0.10979321292929   -0.31586761295438
H         0.95720582769166    3.24775958999364    0.37672723185659
O         2.55706506763837    2.77662297636927    0.29512144028448
C         3.66343314719835   -0.67813457676227    0.08690069199225
C         4.89092978868517    1.39053827950329   -0.03272683571059
C         6.08999469102710    0.69506534787648   -0.05795479127576
C         6.06634262035217   -0.70219650581313   -0.01980190623084
H         4.86049139951747    2.46862824212745   -0.06091751205708
C         4.86209658443217   -1.37172722137318    0.05635736517703
H         7.00428896959317   -1.23367529701121   -0.04316496389432
H         4.85653498787958   -2.45031275819852    0.09636749353073
H         2.74255911906483   -1.22983907394596    0.17280018888994
C        -5.27746520713099   -0.62243064444398   -0.03457837566202
O        -5.48623376978635   -1.81755943257169   -0.01093043326679
O        -6.25709219798339    0.28447741761434   -0.05633108186805
C        -7.59304235056316   -0.21354316843424   -0.04293476060444
H        -7.76962350332182   -0.84298067710727   -0.91726812483026
H        -8.23532428180260    0.66233887473697   -0.05921153850977
H        -7.76496179867756   -0.80610262955520    0.85784325427218
O         7.32138397801311    1.26905003301274   -0.11666084091952
C         7.41412022354028    2.67950805439459   -0.13898835541801
H         8.48016053172216    2.89810514273856   -0.15922139040888
H         6.96596589877376    3.12219522166660    0.75529414240830
H         6.93731717340848    3.09484057224338   -1.03170675975199
39
 energy: -67.053508405743 gnorm: 0.000738017477 xtb: 6.4.1 (afa7bdf)
C        -3.73267868751087    1.36363316204490   -0.07759372710295
C        -3.92562577725556   -0.01616663540845   -0.03733964349597
C        -2.81921796069266   -0.86350764573081    0.02345530180945
C        -1.54160297095035   -0.34608807896054    0.05429887149053
C        -1.33942675325250    1.03591148069838    0.01993156059112