! Job execution by suborca V 5.02 !
Job started from clu.thch.uni-bonn.de, running /software/cluster/orca_5_0_2_linux_x86-64_openmpi411/orca from /software/cluster/orca_5_0_2_linux_x86-64_openmpi411 on boar231 in /tmp1/rothe/Aldol_Cry-Li_sp__izgM65
Going to copy the following really necessary files:  

                                 *****************
                                 * O   R   C   A *
                                 *****************

                                            #,                                       
                                            ###                                      
                                            ####                                     
                                            #####                                    
                                            ######                                   
                                           ########,                                 
                                     ,,################,,,,,                         
                               ,,#################################,,                 
                          ,,##########################################,,             
                       ,#########################################, ''#####,          
                    ,#############################################,,   '####,        
                  ,##################################################,,,,####,       
                ,###########''''           ''''###############################       
              ,#####''   ,,,,##########,,,,          '''####'''          '####       
            ,##' ,,,,###########################,,,                        '##       
           ' ,,###''''                  '''############,,,                           
         ,,##''                                '''############,,,,        ,,,,,,###''
      ,#''                                            '''#######################'''  
     '                                                          ''''####''''         
             ,#######,   #######,   ,#######,      ##                                
            ,#'     '#,  ##    ##  ,#'     '#,    #''#        ######   ,####,        
            ##       ##  ##   ,#'  ##            #'  '#       #        #'  '#        
            ##       ##  #######   ##           ,######,      #####,   #    #        
            '#,     ,#'  ##    ##  '#,     ,#' ,#      #,         ##   #,  ,#        
             '#######'   ##     ##  '#######'  #'      '#     #####' # '####'        



                  #######################################################
                  #                        -***-                        #
                  #          Department of theory and spectroscopy      #
                  #    Directorship and core code : Frank Neese         #
                  #        Max Planck Institute fuer Kohlenforschung    #
                  #                Kaiser Wilhelm Platz 1               #
                  #                 D-45470 Muelheim/Ruhr               #
                  #                      Germany                        #
                  #                                                     #
                  #                  All rights reserved                #
                  #                        -***-                        #
                  #######################################################


                         Program Version 5.0.2 -  RELEASE  -


 With contributions from (in alphabetic order):
   Daniel Aravena         : Magnetic Suceptibility
   Michael Atanasov       : Ab Initio Ligand Field Theory (pilot matlab implementation)
   Alexander A. Auer      : GIAO ZORA, VPT2 properties, NMR spectrum
   Ute Becker             : Parallelization
   Giovanni Bistoni       : ED, misc. LED, open-shell LED, HFLD
   Martin Brehm           : Molecular dynamics
   Dmytro Bykov           : SCF Hessian
   Vijay G. Chilkuri      : MRCI spin determinant printing, contributions to CSF-ICE
   Dipayan Datta          : RHF DLPNO-CCSD density
   Achintya Kumar Dutta   : EOM-CC, STEOM-CC
   Dmitry Ganyushin       : Spin-Orbit,Spin-Spin,Magnetic field MRCI
   Miquel Garcia          : C-PCM and meta-GGA Hessian, CC/C-PCM, Gaussian charge scheme
   Yang Guo               : DLPNO-NEVPT2, F12-NEVPT2, CIM, IAO-localization
   Andreas Hansen         : Spin unrestricted coupled pair/coupled cluster methods
   Benjamin Helmich-Paris : MC-RPA, TRAH-SCF, COSX integrals
   Lee Huntington         : MR-EOM, pCC
   Robert Izsak           : Overlap fitted RIJCOSX, COSX-SCS-MP3, EOM
   Marcus Kettner         : VPT2
   Christian Kollmar      : KDIIS, OOCD, Brueckner-CCSD(T), CCSD density, CASPT2, CASPT2-K
   Simone Kossmann        : Meta GGA functionals, TD-DFT gradient, OOMP2, MP2 Hessian
   Martin Krupicka        : Initial AUTO-CI
   Lucas Lang             : DCDCAS
   Marvin Lechner         : AUTO-CI (C++ implementation), FIC-MRCC
   Dagmar Lenk            : GEPOL surface, SMD
   Dimitrios Liakos       : Extrapolation schemes; Compound Job, initial MDCI parallelization
   Dimitrios Manganas     : Further ROCIS development; embedding schemes
   Dimitrios Pantazis     : SARC Basis sets
   Anastasios Papadopoulos: AUTO-CI, single reference methods and gradients
   Taras Petrenko         : DFT Hessian,TD-DFT gradient, ASA, ECA, R-Raman, ABS, FL, XAS/XES, NRVS
   Peter Pinski           : DLPNO-MP2, DLPNO-MP2 Gradient
   Christoph Reimann      : Effective Core Potentials
   Marius Retegan         : Local ZFS, SOC
   Christoph Riplinger    : Optimizer, TS searches, QM/MM, DLPNO-CCSD(T), (RO)-DLPNO pert. Triples
   Tobias Risthaus        : Range-separated hybrids, TD-DFT gradient, RPA, STAB
   Michael Roemelt        : Original ROCIS implementation
   Masaaki Saitow         : Open-shell DLPNO-CCSD energy and density
   Barbara Sandhoefer     : DKH picture change effects
   Avijit Sen             : IP-ROCIS
   Kantharuban Sivalingam : CASSCF convergence, NEVPT2, FIC-MRCI
   Bernardo de Souza      : ESD, SOC TD-DFT
   Georgi Stoychev        : AutoAux, RI-MP2 NMR, DLPNO-MP2 response
   Willem Van den Heuvel  : Paramagnetic NMR
   Boris Wezisla          : Elementary symmetry handling
   Frank Wennmohs         : Technical directorship


 We gratefully acknowledge several colleagues who have allowed us to
 interface, adapt or use parts of their codes:
   Stefan Grimme, W. Hujo, H. Kruse, P. Pracht,  : VdW corrections, initial TS optimization,
                  C. Bannwarth, S. Ehlert          DFT functionals, gCP, sTDA/sTD-DF
   Ed Valeev, F. Pavosevic, A. Kumar             : LibInt (2-el integral package), F12 methods
   Garnet Chan, S. Sharma, J. Yang, R. Olivares  : DMRG
   Ulf Ekstrom                                   : XCFun DFT Library
   Mihaly Kallay                                 : mrcc  (arbitrary order and MRCC methods)
   Jiri Pittner, Ondrej Demel                    : Mk-CCSD
   Frank Weinhold                                : gennbo (NPA and NBO analysis)
   Christopher J. Cramer and Donald G. Truhlar   : smd solvation model
   Lars Goerigk                                  : TD-DFT with DH, B97 family of functionals
   V. Asgeirsson, H. Jonsson                     : NEB implementation
   FAccTs GmbH                                   : IRC, NEB, NEB-TS, DLPNO-Multilevel, CI-OPT
                                                   MM, QMMM, 2- and 3-layer-ONIOM, Crystal-QMMM,
                                                   LR-CPCM, SF, NACMEs, symmetry and pop. for TD-DFT,
                                                   nearIR, NL-DFT gradient (VV10), updates on ESD,
                                                   ML-optimized integration grids
   S Lehtola, MJT Oliveira, MAL Marques          : LibXC Library
   Liviu Ungur et al                             : ANISO software


 Your calculation uses the libint2 library for the computation of 2-el integrals
 For citations please refer to: http://libint.valeyev.net

 Your ORCA version has been built with support for libXC version: 5.1.0
 For citations please refer to: https://tddft.org/programs/libxc/

 This ORCA versions uses:
   CBLAS   interface :  Fast vector & matrix operations
   LAPACKE interface :  Fast linear algebra routines
   SCALAPACK package :  Parallel linear algebra routines
   Shared memory     :  Shared parallel matrices
   BLAS/LAPACK       :  OpenBLAS 0.3.15  USE64BITINT DYNAMIC_ARCH NO_AFFINITY Barcelona SINGLE_THREADED
        Core in use  :  Barcelona
   Copyright (c) 2011-2014, The OpenBLAS Project


Your calculation utilizes the atom-pairwise dispersion correction
with the Becke-Johnson damping scheme (D3BJ)
Cite in your paper:
S.Grimme, S.Ehrlich, L.Goerigk, J Comput Chem, (2011), 32, 1456–1465 
S.Grimme, J.Antony, S.Ehrlich and H.Krieg, J.Chem.Phys., 132, (2010), 154104 
   

================================================================================

----- Orbital basis set information -----
Your calculation utilizes the basis: def2-QZVP
   F. Weigend and R. Ahlrichs, Phys. Chem. Chem. Phys. 7, 3297 (2005).

----- AuxJK basis set information -----
Your calculation utilizes the auxiliary basis: def2/JK
   H-Ba, Hf-Rn: F. Weigend, J. Comput. Chem. 29, 167 (2008).

================================================================================
                                        WARNINGS
                       Please study these warnings very carefully!
================================================================================


INFO   : the flag for use of the SHARK integral package has been found!

================================================================================
                                       INPUT FILE
================================================================================
NAME = Aldol_Cry-Li_sp.inp
|  1> ! PW6B95 D3BJ def2-QZVP RIJK def2/JK tightSCF CPCM(THF)
|  2> ! sp Pal8
|  3> 
|  4> * xyz 0 1
|  5>   C   -5.07844952407575     -0.07627329415885      0.09142718468068
|  6>   C   -5.13396059371650     -1.47171514752160     -0.04275350297014
|  7>   C   -3.95623835425438     -2.18543973507416     -0.30512571303270
|  8>   C   -2.74222762630177     -1.51989146432927     -0.42020651273428
|  9>   C   -2.67768689698617     -0.12282299466208     -0.28570042177787
| 10>   C   -3.86401499355580      0.58623342794768     -0.03825140749860
| 11>   C   -1.39849122951298      0.64856037192123     -0.41999181290736
| 12>   H   -3.81356472612589      1.66594053272608      0.05570368184179
| 13>   H   -5.98521672480884      0.48249555387712      0.29493026069712
| 14>   H   -4.00757214254998     -3.26314901509468     -0.42143924514813
| 15>   H   -1.84574633349555     -2.08973409294583     -0.64173396940253
| 16>   C   -0.17898763742363     -0.02333711576740     -0.19384889053873
| 17>   C   1.10839021141416      0.56070022060472     -0.27246242850522
| 18>   C   2.30952477112564     -0.29083565560991      0.00649980683202
| 19>   C   2.26011603905550     -1.69392954505042     -0.07522786420480
| 20>   C   3.40392656865780     -2.44999850813269      0.19209677493177
| 21>   C   4.60239942267360     -1.81318127146248      0.54871128230431
| 22>   C   4.64622688291306     -0.42493132058662      0.62549546434627
| 23>   C   3.51178461971038      0.33989624416658      0.34992850154600
| 24>   H   3.54035999166588      1.42245299598135      0.40596138320340
| 25>   H   1.34149602497531     -2.18518407231197     -0.37031668426949
| 26>   H   5.48007824145152     -2.41831761778888      0.75603074544620
| 27>   H   5.57568027558636      0.06414847702250      0.90381557073769
| 28>   H   -0.23632878801319     -1.06042683868337      0.10808475241509
| 29>   O   1.32506698700067      1.79104461840886     -0.54921667870684
| 30>   O   -1.51099132265527      1.88995755982771     -0.71556464354982
| 31>   O   3.45064673770405     -3.81709139278245      0.12586233967015
| 32>   C   2.23384185533007     -4.50168172697765     -0.21937387969253
| 33>   H   1.44651472615401     -4.28524776902974      0.51174793146119
| 34>   H   2.48292575800338     -5.56248163656822     -0.19818156021522
| 35>   H   1.89818512727694     -4.21493830719884     -1.22258203737573
| 36>   Li  -0.03979596429930      2.92686200149540     -0.88629104465691
| 37>   C   -6.40527113747788     -2.23207541127309      0.07742472403465
| 38>   O   -7.46467391870574     -1.43027498449222      0.32860544450661
| 39>   O   -6.50093873966361     -3.44627056520853     -0.03495305899136
| 40>   C   -8.74021812257645     -2.11306188282512      0.45819708645356
| 41>   H   -8.97533456265619     -2.63853718290656     -0.46990219908174
| 42>   H   -9.46329776799355     -1.32305783252879      0.65500648164905
| 43>   H   -8.69829716774892     -2.82233070120636      1.28759404470688
| 44> *
| 45> 
| 46>                          ****END OF INPUT****
================================================================================

                       ****************************
                       * Single Point Calculation *
                       ****************************

---------------------------------
CARTESIAN COORDINATES (ANGSTROEM)
---------------------------------
  C     -5.078450   -0.076273    0.091427
  C     -5.133961   -1.471715   -0.042754
  C     -3.956238   -2.185440   -0.305126
  C     -2.742228   -1.519891   -0.420207
  C     -2.677687   -0.122823   -0.285700
  C     -3.864015    0.586233   -0.038251
  C     -1.398491    0.648560   -0.419992
  H     -3.813565    1.665941    0.055704
  H     -5.985217    0.482496    0.294930
  H     -4.007572   -3.263149   -0.421439
  H     -1.845746   -2.089734   -0.641734
  C     -0.178988   -0.023337   -0.193849
  C      1.108390    0.560700   -0.272462
  C      2.309525   -0.290836    0.006500
  C      2.260116   -1.693930   -0.075228
  C      3.403927   -2.449999    0.192097
  C      4.602399   -1.813181    0.548711
  C      4.646227   -0.424931    0.625495
  C      3.511785    0.339896    0.349929
  H      3.540360    1.422453    0.405961
  H      1.341496   -2.185184   -0.370317
  H      5.480078   -2.418318    0.756031
  H      5.575680    0.064148    0.903816
  H     -0.236329   -1.060427    0.108085
  O      1.325067    1.791045   -0.549217
  O     -1.510991    1.889958   -0.715565
  O      3.450647   -3.817091    0.125862
  C      2.233842   -4.501682   -0.219374
  H      1.446515   -4.285248    0.511748
  H      2.482926   -5.562482   -0.198182
  H      1.898185   -4.214938   -1.222582
  Li    -0.039796    2.926862   -0.886291
  C     -6.405271   -2.232075    0.077425
  O     -7.464674   -1.430275    0.328605
  O     -6.500939   -3.446271   -0.034953
  C     -8.740218   -2.113062    0.458197
  H     -8.975335   -2.638537   -0.469902
  H     -9.463298   -1.323058    0.655006
  H     -8.698297   -2.822331    1.287594

----------------------------
CARTESIAN COORDINATES (A.U.)
----------------------------
  NO LB      ZA    FRAG     MASS         X           Y           Z
   0 C     6.0000    0    12.011   -9.596879   -0.144136    0.172772
   1 C     6.0000    0    12.011   -9.701780   -2.781139   -0.080792
   2 C     6.0000    0    12.011   -7.476207   -4.129883   -0.576604
   3 C     6.0000    0    12.011   -5.182059   -2.872179   -0.794075
   4 C     6.0000    0    12.011   -5.060095   -0.232102   -0.539896
   5 C     6.0000    0    12.011   -7.301930    1.107821   -0.072285
   6 C     6.0000    0    12.011   -2.642765    1.225601   -0.793670
   7 H     1.0000    0     1.008   -7.206593    3.148171    0.105265
   8 H     1.0000    0     1.008  -11.310420    0.911784    0.557337
   9 H     1.0000    0     1.008   -7.573214   -6.166458   -0.796405
  10 H     1.0000    0     1.008   -3.487955   -3.949025   -1.212701
  11 C     6.0000    0    12.011   -0.338238   -0.044101   -0.366321
  12 C     6.0000    0    12.011    2.094554    1.059570   -0.514879
  13 C     6.0000    0    12.011    4.364369   -0.549600    0.012283
  14 C     6.0000    0    12.011    4.271000   -3.201063   -0.142160
  15 C     6.0000    0    12.011    6.432489   -4.629826    0.363010
  16 C     6.0000    0    12.011    8.697274   -3.426416    1.036914
  17 C     6.0000    0    12.011    8.780096   -0.803004    1.182015
  18 C     6.0000    0    12.011    6.636311    0.642311    0.661269
  19 H     1.0000    0     1.008    6.690311    2.688047    0.767156
  20 H     1.0000    0     1.008    2.535060   -4.129399   -0.699797
  21 H     1.0000    0     1.008   10.355847   -4.569958    1.428691
  22 H     1.0000    0     1.008   10.536509    0.121223    1.707964
  23 H     1.0000    0     1.008   -0.446597   -2.003916    0.204251
  24 O     8.0000    0    15.999    2.504014    3.384584   -1.037869
  25 O     8.0000    0    15.999   -2.855360    3.571502   -1.352221
  26 O     8.0000    0    15.999    6.520777   -7.213257    0.237845
  27 C     6.0000    0    12.011    4.221349   -8.506946   -0.414557
  28 H     1.0000    0     1.008    2.733517   -8.097945    0.967063
  29 H     1.0000    0     1.008    4.692050  -10.511567   -0.374509
  30 H     1.0000    0     1.008    3.587050   -7.965079   -2.310345
  31 Li    3.0000    0     6.941   -0.075203    5.530968   -1.674847
  32 C     6.0000    0    12.011  -12.104208   -4.218011    0.146312
  33 O     8.0000    0    15.999  -14.106189   -2.702828    0.620974
  34 O     8.0000    0    15.999  -12.284994   -6.512508   -0.066052
  35 C     6.0000    0    12.011  -16.516619   -3.993108    0.865867
  36 H     1.0000    0     1.008  -16.960924   -4.986113   -0.887986
  37 H     1.0000    0     1.008  -17.883041   -2.500217    1.237783
  38 H     1.0000    0     1.008  -16.437399   -5.333432    2.433200

--------------------------------
INTERNAL COORDINATES (ANGSTROEM)
--------------------------------
 C      0   0   0     0.000000000000     0.00000000     0.00000000
 C      1   0   0     1.402976800203     0.00000000     0.00000000
 C      2   1   0     1.401881463182   119.40925602     0.00000000
 C      3   2   1     1.389251647016   120.37984563     0.54856221
 C      4   3   2     1.405011638095   120.56880564   359.51790172
 C      1   2   3     1.389454181693   119.99381702     0.11864894
 C      5   4   3     1.499802664238   122.82145765   180.90643164
 H      6   1   2     1.084960930359   120.46833096   179.47985491
 H      1   2   3     1.084372115009   119.82731126   180.03264469
 H      3   2   1     1.085182605747   119.07359686   180.83344218
 H      4   3   2     1.085114622424   119.16197816   181.12051544
 C      7   5   4     1.410594153688   118.55674608   336.64898846
 C     12   7   5     1.415846539815   125.49998768   180.39228117
 C     13  12   7     1.498551803495   118.95138553   179.59035411
 C     14  13  12     1.406340320692   121.86700124    20.55527161
 C     15  14  13     1.396927080149   120.00660941   179.95417522
 C     16  15  14     1.403227451842   120.15459185     0.30375231
 C     17  16  15     1.391062393637   119.59347607   359.57327368
 C     18  17  16     1.395656692505   120.68976060   359.91384889
 H     19  18  17     1.084382477085   121.02824817   180.13701993
 H     15  14  13     1.082714714295   119.88919180     1.52757854
 H     17  16  15     1.086043952322   119.06933404   179.79445280
 H     18  17  16     1.086528756731   119.36105782   179.88464855
 H     12   7   5     1.081668630254   117.10430488   357.48499451
 O     13  12   7     1.279565972231   124.23669800     0.74849309
 O      7   5   4     1.281049002698   116.36969459   157.71826192
 O     16  15  14     1.369493603443   123.98436465   180.57663932
 C     27  16  15     1.438216289229   117.25243721   358.91541706
 H     28  27  16     1.096023160902   110.70995848   300.00419854
 H     28  27  16     1.089857033359   105.38348976   181.00492238
 H     28  27  16     1.096044632082   110.74939186    62.05630725
 Li    25  13  12     1.807360266171   121.11288462   359.57193384
 C      2   1   3     1.486210293201   122.34216539   180.27186646
 O     33   2   1     1.352150114298   112.44836303   359.81447961
 O     33   2   1     1.223131607010   124.56553661   179.83210341
 C     34  33   2     1.452585611324   115.20413288   180.02503748
 H     36  34  33     1.092141160841   109.83960534   299.49440067
 H     36  34  33     1.088891413842   104.96416377   180.00459854
 H     36  34  33     1.092116723405   109.83527566    60.53920574

---------------------------
INTERNAL COORDINATES (A.U.)
---------------------------
 C      0   0   0     0.000000000000     0.00000000     0.00000000
 C      1   0   0     2.651241924629     0.00000000     0.00000000
 C      2   1   0     2.649172037635   119.40925602     0.00000000
 C      3   2   1     2.625305143958   120.37984563     0.54856221
 C      4   3   2     2.655087210972   120.56880564   359.51790172
 C      1   2   3     2.625687879032   119.99381702     0.11864894
 C      5   4   3     2.834216290335   122.82145765   180.90643164
 H      6   1   2     2.050279024383   120.46833096   179.47985491
 H      1   2   3     2.049166324628   119.82731126   180.03264469
 H      3   2   1     2.050697930157   119.07359686   180.83344218
 H      4   3   2     2.050569460294   119.16197816   181.12051544
 C      7   5   4     2.665636636581   118.55674608   336.64898846
 C     12   7   5     2.675562207911   125.49998768   180.39228117
 C     13  12   7     2.831852506099   118.95138553   179.59035411
 C     14  13  12     2.657598057198   121.86700124    20.55527161
 C     15  14  13     2.639809610541   120.00660941   179.95417522
 C     16  15  14     2.651715587581   120.15459185     0.30375231
 C     17  16  15     2.628726959170   119.59347607   359.57327368
 C     18  17  16     2.637408925809   120.68976060   359.91384889
 H     19  18  17     2.049185906114   121.02824817   180.13701993
 H     15  14  13     2.046034291184   119.88919180     1.52757854
 H     17  16  15     2.052325639289   119.06933404   179.79445280
 H     18  17  16     2.053241786851   119.36105782   179.88464855
 H     12   7   5     2.044057478834   117.10430488   357.48499451
 O     13  12   7     2.418029257801   124.23669800     0.74849309
 O      7   5   4     2.420831779232   116.36969459   157.71826192
 O     16  15  14     2.587967852663   123.98436465   180.57663932
 C     27  16  15     2.717834907987   117.25243721   358.91541706
 H     28  27  16     2.071183610540   110.70995848   300.00419854
 H     28  27  16     2.059531318177   105.38348976   181.00492238
 H     28  27  16     2.071224185190   110.74939186    62.05630725
 Li    25  13  12     3.415415928394   121.11288462   359.57193384
 C      2   1   3     2.808530431565   122.34216539   180.27186646
 O     33   2   1     2.555193407974   112.44836303   359.81447961
 O     33   2   1     2.311383762991   124.56553661   179.83210341
 C     34  33   2     2.744988991477   115.20413288   180.02503748
 H     36  34  33     2.063847693572   109.83960534   299.49440067
 H     36  34  33     2.057706561739   104.96416377   180.00459854
 H     36  34  33     2.063801513511   109.83527566    60.53920574

---------------------
BASIS SET INFORMATION
---------------------
There are 4 groups of distinct atoms

 Group   1 Type C   : 15s8p3d2f1g contracted to 7s4p3d2f1g pattern {8211111/5111/111/11/1}
 Group   2 Type H   : 7s3p2d1f contracted to 4s3p2d1f pattern {4111/111/11/1}
 Group   3 Type O   : 15s8p3d2f1g contracted to 7s4p3d2f1g pattern {8211111/5111/111/11/1}
 Group   4 Type Li  : 15s6p2d1f contracted to 6s4p2d1f pattern {921111/3111/11/1}

Atom   0C    basis set group =>   1
Atom   1C    basis set group =>   1
Atom   2C    basis set group =>   1
Atom   3C    basis set group =>   1
Atom   4C    basis set group =>   1
Atom   5C    basis set group =>   1
Atom   6C    basis set group =>   1
Atom   7H    basis set group =>   2
Atom   8H    basis set group =>   2
Atom   9H    basis set group =>   2
Atom  10H    basis set group =>   2
Atom  11C    basis set group =>   1
Atom  12C    basis set group =>   1
Atom  13C    basis set group =>   1
Atom  14C    basis set group =>   1
Atom  15C    basis set group =>   1
Atom  16C    basis set group =>   1
Atom  17C    basis set group =>   1
Atom  18C    basis set group =>   1
Atom  19H    basis set group =>   2
Atom  20H    basis set group =>   2
Atom  21H    basis set group =>   2
Atom  22H    basis set group =>   2
Atom  23H    basis set group =>   2
Atom  24O    basis set group =>   3
Atom  25O    basis set group =>   3
Atom  26O    basis set group =>   3
Atom  27C    basis set group =>   1
Atom  28H    basis set group =>   2
Atom  29H    basis set group =>   2
Atom  30H    basis set group =>   2
Atom  31Li   basis set group =>   4
Atom  32C    basis set group =>   1
Atom  33O    basis set group =>   3
Atom  34O    basis set group =>   3
Atom  35C    basis set group =>   1
Atom  36H    basis set group =>   2
Atom  37H    basis set group =>   2
Atom  38H    basis set group =>   2
----------------------------------
AUXILIARY/JK BASIS SET INFORMATION
----------------------------------
There are 4 groups of distinct atoms

 Group   1 Type C   : 14s10p6d2f1g contracted to 10s8p5d1f1g pattern {5111111111/31111111/21111/2/1}
 Group   2 Type H   : 4s2p2d contracted to 2s2p2d pattern {31/11/11}
 Group   3 Type O   : 14s10p6d2f1g contracted to 10s8p4d2f1g pattern {5111111111/31111111/3111/11/1}
 Group   4 Type Li  : 10s7p4d2f contracted to 7s5p3d2f pattern {4111111/31111/211/11}

Atom   0C    basis set group =>   1
Atom   1C    basis set group =>   1
Atom   2C    basis set group =>   1
Atom   3C    basis set group =>   1
Atom   4C    basis set group =>   1
Atom   5C    basis set group =>   1
Atom   6C    basis set group =>   1
Atom   7H    basis set group =>   2
Atom   8H    basis set group =>   2
Atom   9H    basis set group =>   2
Atom  10H    basis set group =>   2
Atom  11C    basis set group =>   1
Atom  12C    basis set group =>   1
Atom  13C    basis set group =>   1
Atom  14C    basis set group =>   1
Atom  15C    basis set group =>   1
Atom  16C    basis set group =>   1
Atom  17C    basis set group =>   1
Atom  18C    basis set group =>   1
Atom  19H    basis set group =>   2
Atom  20H    basis set group =>   2
Atom  21H    basis set group =>   2
Atom  22H    basis set group =>   2
Atom  23H    basis set group =>   2
Atom  24O    basis set group =>   3
Atom  25O    basis set group =>   3
Atom  26O    basis set group =>   3
Atom  27C    basis set group =>   1
Atom  28H    basis set group =>   2
Atom  29H    basis set group =>   2
Atom  30H    basis set group =>   2
Atom  31Li   basis set group =>   4
Atom  32C    basis set group =>   1
Atom  33O    basis set group =>   3
Atom  34O    basis set group =>   3
Atom  35C    basis set group =>   1
Atom  36H    basis set group =>   2
Atom  37H    basis set group =>   2
Atom  38H    basis set group =>   2


           ************************************************************
           *        Program running with 8 parallel MPI-processes     *
           *              working on a common directory               *
           ************************************************************
------------------------------------------------------------------------------
                           ORCA GTO INTEGRAL CALCULATION
                           -- RI-GTO INTEGRALS CHOSEN --
------------------------------------------------------------------------------
------------------------------------------------------------------------------
                   ___                                                        
                  /   \      - P O W E R E D   B Y -                         
                 /     \                                                     
                 |  |  |   _    _      __       _____    __    __             
                 |  |  |  | |  | |    /  \     |  _  \  |  |  /  |          
                  \  \/   | |  | |   /    \    | | | |  |  | /  /          
                 / \  \   | |__| |  /  /\  \   | |_| |  |  |/  /          
                |  |  |   |  __  | /  /__\  \  |    /   |      \           
                |  |  |   | |  | | |   __   |  |    \   |  |\   \          
                \     /   | |  | | |  |  |  |  | |\  \  |  | \   \       
                 \___/    |_|  |_| |__|  |__|  |_| \__\ |__|  \__/        
                                                                              
                      - O R C A' S   B I G   F R I E N D -                    
                                      &                                       
                       - I N T E G R A L  F E E D E R -                       
                                                                              
 v1 FN, 2020, v2 2021                                                         
------------------------------------------------------------------------------


Reading SHARK input file Aldol_Cry-Li_sp.SHARKINP.tmp ... ok
----------------------
SHARK INTEGRAL PACKAGE
----------------------

Number of atoms                             ...     39
Number of basis functions                   ...   1796
Number of shells                            ...    554
Maximum angular momentum                    ...      4
Integral batch strategy                     ... SHARK/LIBINT Hybrid
RI-J (if used) integral strategy            ... SPLIT-RIJ (Revised 2003 algorithm where possible)
Printlevel                                  ...      1
Contraction scheme used                     ... SEGMENTED contraction
Coulomb Range Separation                    ... NOT USED
Exchange Range Separation                   ... NOT USED
Finite Nucleus Model                        ... NOT USED
Auxiliary Coulomb fitting basis             ... NOT available
Auxiliary J/K fitting basis                 ... AVAILABLE
   # of basis functions in Aux-JK           ...   2056
   # of shells in Aux-JK                    ...    682
   Maximum angular momentum in Aux-JK       ...      4
Auxiliary Correlation fitting basis         ... NOT available
Auxiliary 'external' fitting basis          ... NOT available
Integral threshold                          ...     2.500000e-11
Primitive cut-off                           ...     2.500000e-12
Primitive pair pre-selection threshold      ...     2.500000e-12

Calculating pre-screening integrals         ... done (  1.6 sec) Dimension = 554
Organizing shell pair data                  ... done (  3.5 sec)
Shell pair information
Total number of shell pairs                 ...    153735
Shell pairs after pre-screening             ...     80290
Total number of primitive shell pairs       ...    393968
Primitive shell pairs kept                  ...    142369
          la=0 lb=0:  12515 shell pairs
          la=1 lb=0:  18340 shell pairs
          la=1 lb=1:   6513 shell pairs
          la=2 lb=0:  11064 shell pairs
          la=2 lb=1:   8173 shell pairs
          la=2 lb=2:   2549 shell pairs
          la=3 lb=0:   6518 shell pairs
          la=3 lb=1:   4863 shell pairs
          la=3 lb=2:   2894 shell pairs
          la=3 lb=3:    860 shell pairs
          la=4 lb=0:   2418 shell pairs
          la=4 lb=1:   1785 shell pairs
          la=4 lb=2:   1061 shell pairs
          la=4 lb=3:    614 shell pairs
          la=4 lb=4:    123 shell pairs

Calculating one electron integrals          ... done (  0.6 sec)
Calculating RI/JK V-Matrix + Cholesky decomp... done (  0.6 sec)
Calculating Nuclear repulsion               ... done (  0.0 sec) ENN=   1752.504033256773 Eh

SHARK setup successfully completed in  11.1 seconds

Maximum memory used throughout the entire GTOINT-calculation: 146.2 MB


           ************************************************************
           *        Program running with 8 parallel MPI-processes     *
           *              working on a common directory               *
           ************************************************************
-------------------------------------------------------------------------------
                                 ORCA SCF
-------------------------------------------------------------------------------

------------
SCF SETTINGS
------------
Hamiltonian:
 Density Functional     Method          .... DFT(GTOs)
 Exchange Functional    Exchange        .... PW6
 Correlation Functional Correlation     .... B95
 Gradients option       PostSCFGGA      .... off
 Hybrid DFT is turned on
   Fraction HF Exchange ScalHFX         ....  0.280000
   Scaling of DF-GGA-X  ScalDFX         ....  0.720000
   Scaling of DF-GGA-C  ScalDFC         ....  1.000000
   Scaling of DF-LDA-C  ScalLDAC        ....  1.000000
   Perturbative correction              ....  0.000000
   Density functional embedding theory  .... OFF
   NL short-range parameter             ....  9.000000
 RI-approximation to the Coulomb term is turned on
   Number of AuxJK basis functions      .... 2056
   RI-JK (J+K treated both via RI)      .... on


General Settings:
 Integral files         IntName         .... Aldol_Cry-Li_sp
 Hartree-Fock type      HFTyp           .... RHF
 Total Charge           Charge          ....    0
 Multiplicity           Mult            ....    1
 Number of Electrons    NEL             ....  166
 Basis Dimension        Dim             .... 1796
 Nuclear Repulsion      ENuc            ....   1752.5040332568 Eh

Convergence Acceleration:
 DIIS                   CNVDIIS         .... on
   Start iteration      DIISMaxIt       ....    12
   Startup error        DIISStart       ....  0.200000
   # of expansion vecs  DIISMaxEq       ....     5
   Bias factor          DIISBfac        ....   1.050
   Max. coefficient     DIISMaxC        ....  10.000
 Trust-Rad. Augm. Hess. CNVTRAH         .... auto
   Auto Start mean grad. ratio tolernc. ....  1.125000
   Auto Start start iteration           ....    20
   Auto Start num. interpolation iter.  ....    10
   Max. Number of Micro iterations      ....    16
   Max. Number of Macro iterations      .... Maxiter - #DIIS iter
   Number of Davidson start vectors     ....     2
   Converg. threshold I  (grad. norm)   ....   1.000e-05
   Converg. threshold II (energy diff.) ....   1.000e-08
   Grad. Scal. Fac. for Micro threshold ....   0.100
   Minimum threshold for Micro iter.    ....   0.010
   NR start threshold (gradient norm)   ....   0.001
   Initial trust radius                 ....   0.400
   Minimum AH scaling param. (alpha)    ....   1.000
   Maximum AH scaling param. (alpha)    .... 1000.000
   Orbital update algorithm             .... Taylor
   White noise on init. David. guess    .... on
   Maximum white noise                  ....   0.010
   Quad. conv. algorithm                .... NR
 SOSCF                  CNVSOSCF        .... on
   Start iteration      SOSCFMaxIt      ....   150
   Startup grad/error   SOSCFStart      ....  0.003300
 Level Shifting         CNVShift        .... on
   Level shift para.    LevelShift      ....    0.2500
   Turn off err/grad.   ShiftErr        ....    0.0010
 Zerner damping         CNVZerner       .... off
 Static damping         CNVDamp         .... on
   Fraction old density DampFac         ....    0.7000
   Max. Damping (<1)    DampMax         ....    0.9800
   Min. Damping (>=0)   DampMin         ....    0.0000
   Turn off err/grad.   DampErr         ....    0.1000
 Fernandez-Rico         CNVRico         .... off

SCF Procedure:
 Maximum # iterations   MaxIter         ....   125
 SCF integral mode      SCFMode         .... Direct
   Integral package                     .... SHARK and LIBINT hybrid scheme
 Reset frequency        DirectResetFreq ....    20
 Integral Threshold     Thresh          ....  2.500e-11 Eh
 Primitive CutOff       TCut            ....  2.500e-12 Eh

Convergence Tolerance:
 Convergence Check Mode ConvCheckMode   .... Total+1el-Energy
 Convergence forced     ConvForced      .... 0
 Energy Change          TolE            ....  1.000e-08 Eh
 1-El. energy change                    ....  1.000e-05 Eh
 Orbital Gradient       TolG            ....  1.000e-05
 Orbital Rotation angle TolX            ....  1.000e-05
 DIIS Error             TolErr          ....  5.000e-07


Diagonalization of the overlap matrix:
Smallest eigenvalue                        ... 4.927e-06
Time for diagonalization                   ...    1.565 sec
Threshold for overlap eigenvalues          ... 1.000e-08
Number of eigenvalues below threshold      ... 0
Time for construction of square roots      ...    1.257 sec
Total time needed                          ...    2.848 sec

Time for model grid setup =    2.600 sec

------------------------------
INITIAL GUESS: MODEL POTENTIAL
------------------------------
Loading Hartree-Fock densities                     ... done
Calculating cut-offs                               ... done
Initializing the effective Hamiltonian             ... done
Setting up the integral package (SHARK)            ... done
Starting the Coulomb interaction                   ... done (   4.0 sec)
Reading the grid                                   ... done
Mapping shells                                     ... done
Starting the XC term evaluation                    ... done (   2.6 sec)
  promolecular density results
     # of electrons  =    165.991306315
     EX              =   -142.034266279
     EC              =    -10.738214767
     EX+EC           =   -152.772481047
Transforming the Hamiltonian                       ... done (   1.0 sec)
Diagonalizing the Hamiltonian                      ... done (   1.7 sec)
Back transforming the eigenvectors                 ... done (   0.5 sec)
Now organizing SCF variables                       ... done
                      ------------------
                      INITIAL GUESS DONE (  12.7 sec)
                      ------------------
-------------------
DFT GRID GENERATION
-------------------

General Integration Accuracy     IntAcc      ... 4.388
Radial Grid Type                 RadialGrid  ... OptM3 with GC (2021)
Angular Grid (max. ang.)         AngularGrid ... 4 (Lebedev-302)
Angular grid pruning method      GridPruning ... 4 (adaptive)
Weight generation scheme         WeightScheme... Becke
Basis function cutoff            BFCut       ... 1.0000e-11
Integration weight cutoff        WCut        ... 1.0000e-14
Angular grids for H and He will be reduced by one unit
Partially contracted basis set               ... off
Rotationally invariant grid construction     ... off

Total number of grid points                  ...   197159
Total number of batches                      ...     3100
Average number of points per batch           ...       63
Average number of grid points per atom       ...     5055
Time for grid setup =    7.050 sec


--------------------
CPCM SOLVATION MODEL
--------------------
CPCM parameters:
  Epsilon                                         ...       7.2500
  Refrac                                          ...       1.4070
  Rsolv                                           ...       1.3000
  Surface type                                    ... GAUSSIAN VDW
  Epsilon function type                           ...         CPCM
Radii:
 Radius for C  used is    3.8550 Bohr (=   2.0400 Ang.)
 Radius for H  used is    2.4944 Bohr (=   1.3200 Ang.)
 Radius for O  used is    3.4469 Bohr (=   1.8240 Ang.)
 Radius for Li used is    4.1272 Bohr (=   2.1840 Ang.)
Calculating surface                               ...        done! (  0.0s)
GEPOL surface points                              ...         2072
GEPOL Volume                                      ...    2619.7628
GEPOL Surface-area                                ...    1337.3180
Calculating surface distance matrix               ...        done! (  0.1s)
Performing Cholesky decomposition & store         ...        done! (  0.6s)
Overall time for CPCM initialization              ...                 0.7s
--------------
SCF ITERATIONS
--------------
ITER       Energy         Delta-E        Max-DP      RMS-DP      [F,P]     Damp
  0  -1079.6774646402   0.000000000000 0.04546385  0.00029219  0.4122000 0.7000
  1  -1079.6293956081   0.048069032047 0.05658331  0.00029238  0.2229144 0.7000
                               ***Turning on DIIS***
  2  -1079.8788035874  -0.249407979243 0.07348813  0.00050085  0.0743325 0.0000
  3  -1080.4081183517  -0.529314764354 0.02353161  0.00008923  0.1397243 0.7000
  4  -1080.5255375910  -0.117419239311 0.02543317  0.00010096  0.1028760 0.7000
  5  -1080.5563704245  -0.030832833443 0.06812867  0.00027814  0.0649634 0.0000
  6  -1080.5322596283   0.024110796149 0.00264544  0.00001843  0.0116156 0.0000
                      *** Initiating the SOSCF procedure ***
                           *** Shutting down DIIS ***
                      *** Re-Reading the Fockian *** 
                      *** Removing any level shift *** 
ITER      Energy       Delta-E        Grad      Rot      Max-DP    RMS-DP
  7  -1080.53303571  -0.0007760779  0.000301  0.000301  0.000832  0.000007
  8  -1080.53305554  -0.0000198375  0.000149  0.000581  0.000775  0.000005
  9  -1080.53305542   0.0000001245  0.000187  0.000358  0.000407  0.000002
 10  -1080.53306057  -0.0000051523  0.000057  0.000132  0.000098  0.000001
 11  -1080.53306046   0.0000001141  0.000060  0.000073  0.000052  0.000000
 12  -1080.53306089  -0.0000004325  0.000009  0.000032  0.000053  0.000000
 13  -1080.53306088   0.0000000105  0.000011  0.000016  0.000038  0.000000
                  ***Gradient check signals convergence***
              ***Rediagonalizing the Fockian in SOSCF/NRSCF***

               *****************************************************
               *                     SUCCESS                       *
               *           SCF CONVERGED AFTER  14 CYCLES          *
               *****************************************************


----------------
TOTAL SCF ENERGY
----------------

Total Energy       :        -1080.53306090 Eh          -29402.79940 eV

Components:
Nuclear Repulsion  :         1752.50403326 Eh           47688.05916 eV
Electronic Energy  :        -2833.03709416 Eh          -77090.85856 eV
One Electron Energy:        -4953.00483945 Eh         -134778.11367 eV
Two Electron Energy:         2119.96774529 Eh           57687.25511 eV
CPCM Dielectric    :           -0.02315075 Eh              -0.62996 eV

Virial components:
Potential Energy   :        -2156.00303260 Eh          -58667.82513 eV
Kinetic Energy     :         1075.46997170 Eh           29265.02574 eV
Virial Ratio       :            2.00470779


DFT components:
N(Alpha)           :       82.999974615992 electrons
N(Beta)            :       82.999974615992 electrons
N(Total)           :      165.999949231985 electrons
E(X)               :     -104.170980131811 Eh       
E(C)               :       -5.915272594715 Eh       
E(XC)              :     -110.086252726526 Eh       
DFET-embed. en.    :        0.000000000000 Eh       
CPCM Solvation Model Properties:
Surface-charge          :           -0.03363118
Charge-correction       :           -0.00002503 Eh              -0.00068 eV
Free-energy (cav+disp)  :  This term is not implemented in the current solvation scheme

---------------
SCF CONVERGENCE
---------------

  Last Energy change         ...   -2.3309e-08  Tolerance :   1.0000e-08
  Last MAX-Density change    ...    6.6680e-05  Tolerance :   1.0000e-07
  Last RMS-Density change    ...    4.1406e-07  Tolerance :   5.0000e-09
  Last Orbital Gradient      ...    8.5859e-07  Tolerance :   1.0000e-05
  Last Orbital Rotation      ...    2.8911e-06  Tolerance :   1.0000e-05

             **** THE GBW FILE WAS UPDATED (Aldol_Cry-Li_sp.gbw) ****
             **** DENSITY Aldol_Cry-Li_sp.scfp WAS UPDATED ****
             **** ENERGY FILE WAS UPDATED (Aldol_Cry-Li_sp.en.tmp) ****
             **** THE GBW FILE WAS UPDATED (Aldol_Cry-Li_sp.gbw) ****
             **** DENSITY Aldol_Cry-Li_sp.scfp WAS UPDATED ****
----------------
ORBITAL ENERGIES
----------------

  NO   OCC          E(Eh)            E(eV) 
   0   2.0000     -19.347725      -526.4784 
   1   2.0000     -19.330104      -525.9989 
   2   2.0000     -19.291826      -524.9573 
   3   2.0000     -19.272331      -524.4268 
   4   2.0000     -19.272164      -524.4222 
   5   2.0000     -10.437702      -284.0243 
   6   2.0000     -10.381561      -282.4966 
   7   2.0000     -10.381515      -282.4954 
   8   2.0000     -10.366827      -282.0957 
   9   2.0000     -10.347729      -281.5760 
  10   2.0000     -10.344585      -281.4905 
  11   2.0000     -10.327550      -281.0269 
  12   2.0000     -10.323897      -280.9275 
  13   2.0000     -10.316774      -280.7337 
  14   2.0000     -10.316084      -280.7149 
  15   2.0000     -10.315970      -280.7118 
  16   2.0000     -10.314812      -280.6803 
  17   2.0000     -10.311377      -280.5868 
  18   2.0000     -10.306689      -280.4593 
  19   2.0000     -10.306390      -280.4511 
  20   2.0000     -10.304206      -280.3917 
  21   2.0000     -10.299302      -280.2583 
  22   2.0000     -10.280210      -279.7387 
  23   2.0000      -2.005313       -54.5673 
  24   2.0000      -1.139011       -30.9941 
  25   2.0000      -1.095319       -29.8051 
  26   2.0000      -1.052830       -28.6489 
  27   2.0000      -1.051433       -28.6110 
  28   2.0000      -1.040002       -28.2999 
  29   2.0000      -0.899334       -24.4721 
  30   2.0000      -0.885521       -24.0963 
  31   2.0000      -0.819197       -22.2915 
  32   2.0000      -0.801440       -21.8083 
  33   2.0000      -0.784550       -21.3487 
  34   2.0000      -0.778316       -21.1791 
  35   2.0000      -0.767925       -20.8963 
  36   2.0000      -0.744999       -20.2724 
  37   2.0000      -0.720949       -19.6180 
  38   2.0000      -0.685554       -18.6549 
  39   2.0000      -0.656910       -17.8754 
  40   2.0000      -0.637878       -17.3575 
  41   2.0000      -0.622650       -16.9432 
  42   2.0000      -0.601446       -16.3662 
  43   2.0000      -0.588300       -16.0085 
  44   2.0000      -0.568301       -15.4643 
  45   2.0000      -0.555412       -15.1135 
  46   2.0000      -0.537767       -14.6334 
  47   2.0000      -0.516731       -14.0610 
  48   2.0000      -0.508449       -13.8356 
  49   2.0000      -0.507093       -13.7987 
  50   2.0000      -0.505274       -13.7492 
  51   2.0000      -0.498506       -13.5650 
  52   2.0000      -0.487659       -13.2699 
  53   2.0000      -0.483559       -13.1583 
  54   2.0000      -0.474863       -12.9217 
  55   2.0000      -0.469359       -12.7719 
  56   2.0000      -0.461941       -12.5701 
  57   2.0000      -0.456717       -12.4279 
  58   2.0000      -0.449540       -12.2326 
  59   2.0000      -0.438733       -11.9385 
  60   2.0000      -0.435165       -11.8415 
  61   2.0000      -0.431765       -11.7489 
  62   2.0000      -0.427315       -11.6278 
  63   2.0000      -0.415386       -11.3032 
  64   2.0000      -0.410278       -11.1642 
  65   2.0000      -0.395990       -10.7754 
  66   2.0000      -0.393671       -10.7123 
  67   2.0000      -0.388137       -10.5617 
  68   2.0000      -0.384473       -10.4620 
  69   2.0000      -0.377640       -10.2761 
  70   2.0000      -0.374271       -10.1844 
  71   2.0000      -0.364751        -9.9254 
  72   2.0000      -0.357237        -9.7209 
  73   2.0000      -0.342535        -9.3209 
  74   2.0000      -0.333713        -9.0808 
  75   2.0000      -0.312202        -8.4954 
  76   2.0000      -0.310119        -8.4388 
  77   2.0000      -0.286791        -7.8040 
  78   2.0000      -0.283790        -7.7223 
  79   2.0000      -0.280225        -7.6253 
  80   2.0000      -0.277031        -7.5384 
  81   2.0000      -0.246546        -6.7089 
  82   2.0000      -0.237569        -6.4646 
  83   0.0000      -0.081100        -2.2069 
  84   0.0000      -0.044512        -1.2112 
  85   0.0000      -0.017771        -0.4836 
  86   0.0000      -0.006218        -0.1692 
  87   0.0000      -0.004700        -0.1279 
  88   0.0000       0.010076         0.2742 
  89   0.0000       0.015212         0.4139 
  90   0.0000       0.020057         0.5458 
  91   0.0000       0.024768         0.6740 
  92   0.0000       0.033677         0.9164 
  93   0.0000       0.037204         1.0124 
  94   0.0000       0.047514         1.2929 
  95   0.0000       0.051127         1.3912 
  96   0.0000       0.054211         1.4752 
  97   0.0000       0.058681         1.5968 
  98   0.0000       0.067144         1.8271 
  99   0.0000       0.073336         1.9956 
 100   0.0000       0.075500         2.0545 
 101   0.0000       0.081440         2.2161 
 102   0.0000       0.084863         2.3092 
 103   0.0000       0.085850         2.3361 
 104   0.0000       0.087965         2.3937 
 105   0.0000       0.094375         2.5681 
 106   0.0000       0.095665         2.6032 
 107   0.0000       0.097259         2.6465 
 108   0.0000       0.101614         2.7650 
 109   0.0000       0.110246         3.0000 
 110   0.0000       0.116209         3.1622 
 111   0.0000       0.118586         3.2269 
 112   0.0000       0.120785         3.2867 
 113   0.0000       0.123014         3.3474 
 114   0.0000       0.125584         3.4173 
 115   0.0000       0.128832         3.5057 
 116   0.0000       0.134055         3.6478 
 117   0.0000       0.135936         3.6990 
 118   0.0000       0.140942         3.8352 
 119   0.0000       0.142650         3.8817 
 120   0.0000       0.144194         3.9237 
 121   0.0000       0.146474         3.9858 
 122   0.0000       0.151521         4.1231 
 123   0.0000       0.157259         4.2792 
 124   0.0000       0.161559         4.3962 
 125   0.0000       0.164706         4.4819 
 126   0.0000       0.166214         4.5229 
 127   0.0000       0.169434         4.6105 
 128   0.0000       0.170906         4.6506 
 129   0.0000       0.177265         4.8236 
 130   0.0000       0.183895         5.0040 
 131   0.0000       0.185796         5.0558 
 132   0.0000       0.189207         5.1486 
 133   0.0000       0.193292         5.2597 
 134   0.0000       0.195617         5.3230 
 135   0.0000       0.198882         5.4119 
 136   0.0000       0.201376         5.4797 
 137   0.0000       0.206521         5.6197 
 138   0.0000       0.209752         5.7077 
 139   0.0000       0.212688         5.7875 
 140   0.0000       0.217404         5.9159 
 141   0.0000       0.224468         6.1081 
 142   0.0000       0.227952         6.2029 
 143   0.0000       0.230248         6.2654 
 144   0.0000       0.235302         6.4029 
 145   0.0000       0.238564         6.4917 
 146   0.0000       0.239813         6.5256 
 147   0.0000       0.243929         6.6376 
 148   0.0000       0.247070         6.7231 
 149   0.0000       0.249147         6.7796 
 150   0.0000       0.257236         6.9998 
 151   0.0000       0.260038         7.0760 
 152   0.0000       0.263405         7.1676 
 153   0.0000       0.263702         7.1757 
 154   0.0000       0.267803         7.2873 
 155   0.0000       0.271862         7.3977 
 156   0.0000       0.275460         7.4956 
 157   0.0000       0.280959         7.6453 
 158   0.0000       0.285021         7.7558 
 159   0.0000       0.286375         7.7927 
 160   0.0000       0.289130         7.8676 
 161   0.0000       0.294402         8.0111 
 162   0.0000       0.296767         8.0754 
 163   0.0000       0.298258         8.1160 
 164   0.0000       0.302993         8.2449 
 165   0.0000       0.303902         8.2696 
 166   0.0000       0.310331         8.4445 
 167   0.0000       0.310749         8.4559 
 168   0.0000       0.315372         8.5817 
 169   0.0000       0.321447         8.7470 
 170   0.0000       0.323568         8.8047 
 171   0.0000       0.324260         8.8236 
 172   0.0000       0.327971         8.9246 
 173   0.0000       0.329216         8.9584 
 174   0.0000       0.331353         9.0166 
 175   0.0000       0.336290         9.1509 
 176   0.0000       0.336837         9.1658 
 177   0.0000       0.340266         9.2591 
 178   0.0000       0.341896         9.3035 
 179   0.0000       0.345840         9.4108 
 180   0.0000       0.348206         9.4752 
 181   0.0000       0.351895         9.5755 
 182   0.0000       0.356346         9.6967 
 183   0.0000       0.357443         9.7265 
 184   0.0000       0.359721         9.7885 
 185   0.0000       0.362893         9.8748 
 186   0.0000       0.363984         9.9045 
 187   0.0000       0.369282        10.0487 
 188   0.0000       0.374402        10.1880 
 189   0.0000       0.375465        10.2169 
 190   0.0000       0.384550        10.4641 
 191   0.0000       0.386866        10.5272 
 192   0.0000       0.390042        10.6136 
 193   0.0000       0.390624        10.6294 
 194   0.0000       0.397294        10.8109 
 195   0.0000       0.400001        10.8846 
 196   0.0000       0.403949        10.9920 
 197   0.0000       0.407510        11.0889 
 198   0.0000       0.410329        11.1656 
 199   0.0000       0.418860        11.3978 
 200   0.0000       0.423704        11.5296 
 201   0.0000       0.426700        11.6111 
 202   0.0000       0.434003        11.8098 
 203   0.0000       0.435729        11.8568 
 204   0.0000       0.438226        11.9247 
 205   0.0000       0.442222        12.0335 
 206   0.0000       0.450597        12.2614 
 207   0.0000       0.452114        12.3026 
 208   0.0000       0.453355        12.3364 
 209   0.0000       0.456915        12.4333 
 210   0.0000       0.457939        12.4611 
 211   0.0000       0.461651        12.5622 
 212   0.0000       0.466536        12.6951 
 213   0.0000       0.467768        12.7286 
 214   0.0000       0.473896        12.8954 
 215   0.0000       0.475583        12.9413 
 216   0.0000       0.480829        13.0840 
 217   0.0000       0.483399        13.1539 
 218   0.0000       0.487484        13.2651 
 219   0.0000       0.490161        13.3379 
 220   0.0000       0.491470        13.3736 
 221   0.0000       0.496824        13.5193 
 222   0.0000       0.498152        13.5554 
 223   0.0000       0.503644        13.7049 
 224   0.0000       0.504534        13.7291 
 225   0.0000       0.512950        13.9581 
 226   0.0000       0.513789        13.9809 
 227   0.0000       0.515729        14.0337 
 228   0.0000       0.520758        14.1706 
 229   0.0000       0.522792        14.2259 
 230   0.0000       0.525932        14.3113 
 231   0.0000       0.532154        14.4807 
 232   0.0000       0.535494        14.5715 
 233   0.0000       0.536802        14.6071 
 234   0.0000       0.541774        14.7424 
 235   0.0000       0.544568        14.8184 
 236   0.0000       0.546829        14.8800 
 237   0.0000       0.553349        15.0574 
 238   0.0000       0.555326        15.1112 
 239   0.0000       0.556179        15.1344 
 240   0.0000       0.560215        15.2442 
 241   0.0000       0.566082        15.4039 
 242   0.0000       0.570475        15.5234 
 243   0.0000       0.572544        15.5797 
 244   0.0000       0.577175        15.7057 
 245   0.0000       0.580094        15.7852 
 246   0.0000       0.589298        16.0356 
 247   0.0000       0.599842        16.3225 
 248   0.0000       0.602633        16.3985 
 249   0.0000       0.605861        16.4863 
 250   0.0000       0.608602        16.5609 
 251   0.0000       0.612873        16.6771 
 252   0.0000       0.614522        16.7220 
 253   0.0000       0.617547        16.8043 
 254   0.0000       0.625465        17.0198 
 255   0.0000       0.630355        17.1528 
 256   0.0000       0.636133        17.3101 
 257   0.0000       0.638852        17.3840 
 258   0.0000       0.643645        17.5145 
 259   0.0000       0.646657        17.5964 
 260   0.0000       0.649453        17.6725 
 261   0.0000       0.657238        17.8844 
 262   0.0000       0.659619        17.9491 
 263   0.0000       0.661812        18.0088 
 264   0.0000       0.668212        18.1830 
 265   0.0000       0.671989        18.2858 
 266   0.0000       0.673566        18.3287 
 267   0.0000       0.681609        18.5475 
 268   0.0000       0.682855        18.5814 
 269   0.0000       0.685400        18.6507 
 270   0.0000       0.690415        18.7871 
 271   0.0000       0.692984        18.8570 
 272   0.0000       0.698548        19.0085 
 273   0.0000       0.699958        19.0468 
 274   0.0000       0.701270        19.0825 
 275   0.0000       0.711929        19.3726 
 276   0.0000       0.715391        19.4668 
 277   0.0000       0.716661        19.5013 
 278   0.0000       0.721300        19.6276 
 279   0.0000       0.723695        19.6927 
 280   0.0000       0.728402        19.8208 
 281   0.0000       0.730552        19.8793 
 282   0.0000       0.732979        19.9454 
 283   0.0000       0.739507        20.1230 
 284   0.0000       0.742258        20.1979 
 285   0.0000       0.747339        20.3361 
 286   0.0000       0.748451        20.3664 
 287   0.0000       0.751529        20.4502 
 288   0.0000       0.756022        20.5724 
 289   0.0000       0.764498        20.8030 
 290   0.0000       0.765316        20.8253 
 291   0.0000       0.767454        20.8835 
 292   0.0000       0.776017        21.1165 
 293   0.0000       0.780823        21.2473 
 294   0.0000       0.786593        21.4043 
 295   0.0000       0.787616        21.4321 
 296   0.0000       0.789992        21.4968 
 297   0.0000       0.792242        21.5580 
 298   0.0000       0.796420        21.6717 
 299   0.0000       0.803907        21.8754 
 300   0.0000       0.805323        21.9139 
 301   0.0000       0.806948        21.9582 
 302   0.0000       0.814790        22.1716 
 303   0.0000       0.817182        22.2366 
 304   0.0000       0.822470        22.3806 
 305   0.0000       0.823744        22.4152 
 306   0.0000       0.825933        22.4748 
 307   0.0000       0.832633        22.6571 
 308   0.0000       0.833064        22.6688 
 309   0.0000       0.837256        22.7829 
 310   0.0000       0.840142        22.8614 
 311   0.0000       0.843420        22.9506 
 312   0.0000       0.849632        23.1197 
 313   0.0000       0.851531        23.1713 
 314   0.0000       0.856267        23.3002 
 315   0.0000       0.861123        23.4324 
 316   0.0000       0.863009        23.4837 
 317   0.0000       0.868059        23.6211 
 318   0.0000       0.873167        23.7601 
 319   0.0000       0.876906        23.8618 
 320   0.0000       0.880887        23.9702 
 321   0.0000       0.886193        24.1145 
 322   0.0000       0.890380        24.2285 
 323   0.0000       0.897781        24.4298 
 324   0.0000       0.898596        24.4520 
 325   0.0000       0.904125        24.6025 
 326   0.0000       0.910802        24.7842 
 327   0.0000       0.915408        24.9095 
 328   0.0000       0.919906        25.0319 
 329   0.0000       0.921298        25.0698 
 330   0.0000       0.922793        25.1105 
 331   0.0000       0.929943        25.3050 
 332   0.0000       0.931412        25.3450 
 333   0.0000       0.935076        25.4447 
 334   0.0000       0.938882        25.5483 
 335   0.0000       0.948056        25.7979 
 336   0.0000       0.948755        25.8169 
 337   0.0000       0.951778        25.8992 
 338   0.0000       0.957955        26.0673 
 339   0.0000       0.960222        26.1290 
 340   0.0000       0.962805        26.1992 
 341   0.0000       0.967238        26.3199 
 342   0.0000       0.969473        26.3807 
 343   0.0000       0.975978        26.5577 
 344   0.0000       0.977191        26.5907 
 345   0.0000       0.983688        26.7675 
 346   0.0000       0.990113        26.9423 
 347   0.0000       0.993419        27.0323 
 348   0.0000       0.994974        27.0746 
 349   0.0000       0.997929        27.1550 
 350   0.0000       1.001333        27.2476 
 351   0.0000       1.003912        27.3178 
 352   0.0000       1.007145        27.4058 
 353   0.0000       1.012656        27.5558 
 354   0.0000       1.014214        27.5982 
 355   0.0000       1.022307        27.8184 
 356   0.0000       1.025685        27.9103 
 357   0.0000       1.030357        28.0374 
 358   0.0000       1.033952        28.1353 
 359   0.0000       1.036140        28.1948 
 360   0.0000       1.042136        28.3580 
 361   0.0000       1.043566        28.3969 
 362   0.0000       1.046488        28.4764 
 363   0.0000       1.051988        28.6261 
 364   0.0000       1.053767        28.6745 
 365   0.0000       1.058112        28.7927 
 366   0.0000       1.062412        28.9097 
 367   0.0000       1.064771        28.9739 
 368   0.0000       1.069995        29.1160 
 369   0.0000       1.074317        29.2336 
 370   0.0000       1.076087        29.2818 
 371   0.0000       1.079006        29.3613 
 372   0.0000       1.085912        29.5492 
 373   0.0000       1.090982        29.6871 
 374   0.0000       1.093542        29.7568 
 375   0.0000       1.096675        29.8421 
 376   0.0000       1.099403        29.9163 
 377   0.0000       1.105727        30.0884 
 378   0.0000       1.111927        30.2571 
 379   0.0000       1.115674        30.3590 
 380   0.0000       1.120950        30.5026 
 381   0.0000       1.127367        30.6772 
 382   0.0000       1.130539        30.7635 
 383   0.0000       1.138932        30.9919 
 384   0.0000       1.143481        31.1157 
 385   0.0000       1.146562        31.1995 
 386   0.0000       1.148863        31.2622 
 387   0.0000       1.151874        31.3441 
 388   0.0000       1.156911        31.4811 
 389   0.0000       1.161944        31.6181 
 390   0.0000       1.163850        31.6700 
 391   0.0000       1.168894        31.8072 
 392   0.0000       1.175801        31.9952 
 393   0.0000       1.178860        32.0784 
 394   0.0000       1.182630        32.1810 
 395   0.0000       1.185699        32.2645 
 396   0.0000       1.194525        32.5047 
 397   0.0000       1.200387        32.6642 
 398   0.0000       1.203651        32.7530 
 399   0.0000       1.207377        32.8544 
 400   0.0000       1.211141        32.9568 
 401   0.0000       1.220971        33.2243 
 402   0.0000       1.232198        33.5298 
 403   0.0000       1.236256        33.6402 
 404   0.0000       1.243087        33.8261 
 405   0.0000       1.248896        33.9842 
 406   0.0000       1.252602        34.0850 
 407   0.0000       1.262934        34.3662 
 408   0.0000       1.267556        34.4919 
 409   0.0000       1.270490        34.5718 
 410   0.0000       1.271589        34.6017 
 411   0.0000       1.276837        34.7445 
 412   0.0000       1.278473        34.7890 
 413   0.0000       1.286169        34.9984 
 414   0.0000       1.289279        35.0831 
 415   0.0000       1.300387        35.3853 
 416   0.0000       1.308705        35.6117 
 417   0.0000       1.309737        35.6398 
 418   0.0000       1.315027        35.7837 
 419   0.0000       1.319381        35.9022 
 420   0.0000       1.326937        36.1078 
 421   0.0000       1.328523        36.1509 
 422   0.0000       1.338342        36.4181 
 423   0.0000       1.349285        36.7159 
 424   0.0000       1.351618        36.7794 
 425   0.0000       1.361204        37.0402 
 426   0.0000       1.365323        37.1523 
 427   0.0000       1.369383        37.2628 
 428   0.0000       1.370210        37.2853 
 429   0.0000       1.378909        37.5220 
 430   0.0000       1.384629        37.6777 
 431   0.0000       1.387025        37.7429 
 432   0.0000       1.401658        38.1411 
 433   0.0000       1.411635        38.4125 
 434   0.0000       1.414765        38.4977 
 435   0.0000       1.420396        38.6509 
 436   0.0000       1.421859        38.6907 
 437   0.0000       1.426831        38.8260 
 438   0.0000       1.438405        39.1410 
 439   0.0000       1.451776        39.5048 
 440   0.0000       1.454900        39.5898 
 441   0.0000       1.464444        39.8495 
 442   0.0000       1.471570        40.0434 
 443   0.0000       1.475516        40.1508 
 444   0.0000       1.479675        40.2640 
 445   0.0000       1.487052        40.4648 
 446   0.0000       1.488826        40.5130 
 447   0.0000       1.494729        40.6736 
 448   0.0000       1.497461        40.7480 
 449   0.0000       1.501923        40.8694 
 450   0.0000       1.504475        40.9389 
 451   0.0000       1.513294        41.1788 
 452   0.0000       1.520823        41.3837 
 453   0.0000       1.532172        41.6925 
 454   0.0000       1.536653        41.8145 
 455   0.0000       1.543991        42.0141 
 456   0.0000       1.550955        42.2036 
 457   0.0000       1.551918        42.2298 
 458   0.0000       1.564597        42.5749 
 459   0.0000       1.567261        42.6473 
 460   0.0000       1.575798        42.8796 
 461   0.0000       1.583114        43.0787 
 462   0.0000       1.585828        43.1526 
 463   0.0000       1.588741        43.2318 
 464   0.0000       1.600254        43.5451 
 465   0.0000       1.604370        43.6571 
 466   0.0000       1.610809        43.8323 
 467   0.0000       1.619849        44.0783 
 468   0.0000       1.620901        44.1070 
 469   0.0000       1.635099        44.4933 
 470   0.0000       1.639938        44.6250 
 471   0.0000       1.646412        44.8011 
 472   0.0000       1.652884        44.9773 
 473   0.0000       1.658131        45.1200 
 474   0.0000       1.659987        45.1705 
 475   0.0000       1.664876        45.3036 
 476   0.0000       1.672697        45.5164 
 477   0.0000       1.676037        45.6073 
 478   0.0000       1.684339        45.8332 
 479   0.0000       1.686418        45.8898 
 480   0.0000       1.693488        46.0821 
 481   0.0000       1.700060        46.2610 
 482   0.0000       1.703488        46.3543 
 483   0.0000       1.708385        46.4875 
 484   0.0000       1.715779        46.6887 
 485   0.0000       1.725460        46.9521 
 486   0.0000       1.726462        46.9794 
 487   0.0000       1.732162        47.1345 
 488   0.0000       1.735111        47.2148 
 489   0.0000       1.741464        47.3876 
 490   0.0000       1.748880        47.5895 
 491   0.0000       1.753047        47.7028 
 492   0.0000       1.754967        47.7551 
 493   0.0000       1.763921        47.9987 
 494   0.0000       1.772073        48.2206 
 495   0.0000       1.775183        48.3052 
 496   0.0000       1.778525        48.3961 
 497   0.0000       1.782743        48.5109 
 498   0.0000       1.790520        48.7225 
 499   0.0000       1.796291        48.8796 
 500   0.0000       1.801917        49.0326 
 501   0.0000       1.808291        49.2061 
 502   0.0000       1.809418        49.2368 
 503   0.0000       1.818465        49.4830 
 504   0.0000       1.820371        49.5348 
 505   0.0000       1.823632        49.6236 
 506   0.0000       1.825410        49.6719 
 507   0.0000       1.831106        49.8269 
 508   0.0000       1.837407        49.9984 
 509   0.0000       1.839364        50.0516 
 510   0.0000       1.847831        50.2820 
 511   0.0000       1.852360        50.4053 
 512   0.0000       1.856833        50.5270 
 513   0.0000       1.864668        50.7402 
 514   0.0000       1.868705        50.8500 
 515   0.0000       1.872715        50.9592 
 516   0.0000       1.878657        51.1209 
 517   0.0000       1.882826        51.2343 
 518   0.0000       1.887100        51.3506 
 519   0.0000       1.888740        51.3952 
 520   0.0000       1.891850        51.4799 
 521   0.0000       1.895091        51.5680 
 522   0.0000       1.896520        51.6069 
 523   0.0000       1.900931        51.7270 
 524   0.0000       1.906529        51.8793 
 525   0.0000       1.914888        52.1068 
 526   0.0000       1.918646        52.2090 
 527   0.0000       1.923977        52.3541 
 528   0.0000       1.927560        52.4516 
 529   0.0000       1.936304        52.6895 
 530   0.0000       1.939747        52.7832 
 531   0.0000       1.944469        52.9117 
 532   0.0000       1.947543        52.9953 
 533   0.0000       1.952496        53.1301 
 534   0.0000       1.953844        53.1668 
 535   0.0000       1.955024        53.1989 
 536   0.0000       1.956400        53.2364 
 537   0.0000       1.967762        53.5455 
 538   0.0000       1.972678        53.6793 
 539   0.0000       1.976739        53.7898 
 540   0.0000       1.981336        53.9149 
 541   0.0000       1.984264        53.9946 
 542   0.0000       1.991257        54.1848 
 543   0.0000       1.991760        54.1985 
 544   0.0000       1.995934        54.3121 
 545   0.0000       1.998035        54.3693 
 546   0.0000       2.003561        54.5197 
 547   0.0000       2.011605        54.7386 
 548   0.0000       2.021667        55.0124 
 549   0.0000       2.023039        55.0497 
 550   0.0000       2.026258        55.1373 
 551   0.0000       2.030866        55.2627 
 552   0.0000       2.040195        55.5165 
 553   0.0000       2.044337        55.6292 
 554   0.0000       2.046375        55.6847 
 555   0.0000       2.048559        55.7441 
 556   0.0000       2.055485        55.9326 
 557   0.0000       2.056139        55.9504 
 558   0.0000       2.065890        56.2157 
 559   0.0000       2.068448        56.2853 
 560   0.0000       2.073353        56.4188 
 561   0.0000       2.079936        56.5979 
 562   0.0000       2.080711        56.6190 
 563   0.0000       2.087998        56.8173 
 564   0.0000       2.094059        56.9822 
 565   0.0000       2.098959        57.1156 
 566   0.0000       2.102020        57.1989 
 567   0.0000       2.106629        57.3243 
 568   0.0000       2.108214        57.3674 
 569   0.0000       2.112137        57.4742 
 570   0.0000       2.118268        57.6410 
 571   0.0000       2.121783        57.7367 
 572   0.0000       2.123421        57.7812 
 573   0.0000       2.127531        57.8931 
 574   0.0000       2.130268        57.9675 
 575   0.0000       2.135792        58.1179 
 576   0.0000       2.137674        58.1691 
 577   0.0000       2.145543        58.3832 
 578   0.0000       2.146785        58.4170 
 579   0.0000       2.151278        58.5393 
 580   0.0000       2.157882        58.7189 
 581   0.0000       2.163463        58.8708 
 582   0.0000       2.165453        58.9250 
 583   0.0000       2.167222        58.9731 
 584   0.0000       2.172357        59.1128 
 585   0.0000       2.174997        59.1847 
 586   0.0000       2.180565        59.3362 
 587   0.0000       2.185447        59.4690 
 588   0.0000       2.187837        59.5341 
 589   0.0000       2.195344        59.7383 
 590   0.0000       2.196291        59.7641 
 591   0.0000       2.199556        59.8530 
 592   0.0000       2.204889        59.9981 
 593   0.0000       2.205644        60.0186 
 594   0.0000       2.208648        60.1004 
 595   0.0000       2.215488        60.2865 
 596   0.0000       2.219070        60.3840 
 597   0.0000       2.223338        60.5001 
 598   0.0000       2.226486        60.5858 
 599   0.0000       2.231102        60.7114 
 600   0.0000       2.232801        60.7576 
 601   0.0000       2.245443        61.1016 
 602   0.0000       2.251584        61.2687 
 603   0.0000       2.255876        61.3855 
 604   0.0000       2.260514        61.5117 
 605   0.0000       2.266522        61.6752 
 606   0.0000       2.270788        61.7913 
 607   0.0000       2.276643        61.9506 
 608   0.0000       2.280166        62.0465 
 609   0.0000       2.282678        62.1148 
 610   0.0000       2.284348        62.1603 
 611   0.0000       2.296953        62.5033 
 612   0.0000       2.303653        62.6856 
 613   0.0000       2.304362        62.7049 
 614   0.0000       2.305465        62.7349 
 615   0.0000       2.311475        62.8984 
 616   0.0000       2.316446        63.0337 
 617   0.0000       2.320087        63.1328 
 618   0.0000       2.324052        63.2407 
 619   0.0000       2.325796        63.2881 
 620   0.0000       2.329915        63.4002 
 621   0.0000       2.335333        63.5476 
 622   0.0000       2.337396        63.6038 
 623   0.0000       2.342124        63.7324 
 624   0.0000       2.351134        63.9776 
 625   0.0000       2.358791        64.1860 
 626   0.0000       2.362890        64.2975 
 627   0.0000       2.374080        64.6020 
 628   0.0000       2.375734        64.6470 
 629   0.0000       2.378426        64.7203 
 630   0.0000       2.384503        64.8856 
 631   0.0000       2.385615        64.9159 
 632   0.0000       2.389109        65.0110 
 633   0.0000       2.394577        65.1598 
 634   0.0000       2.401894        65.3589 
 635   0.0000       2.405665        65.4615 
 636   0.0000       2.410927        65.6047 
 637   0.0000       2.415583        65.7313 
 638   0.0000       2.418428        65.8088 
 639   0.0000       2.427142        66.0459 
 640   0.0000       2.429516        66.1105 
 641   0.0000       2.435604        66.2761 
 642   0.0000       2.441562        66.4383 
 643   0.0000       2.444979        66.5313 
 644   0.0000       2.449190        66.6459 
 645   0.0000       2.454778        66.7979 
 646   0.0000       2.459558        66.9280 
 647   0.0000       2.465018        67.0766 
 648   0.0000       2.470026        67.2128 
 649   0.0000       2.475268        67.3555 
 650   0.0000       2.480244        67.4909 
 651   0.0000       2.485519        67.6344 
 652   0.0000       2.486390        67.6581 
 653   0.0000       2.493590        67.8540 
 654   0.0000       2.500205        68.0340 
 655   0.0000       2.503689        68.1288 
 656   0.0000       2.506716        68.2112 
 657   0.0000       2.509723        68.2930 
 658   0.0000       2.512755        68.3755 
 659   0.0000       2.514959        68.4355 
 660   0.0000       2.519023        68.5461 
 661   0.0000       2.524792        68.7031 
 662   0.0000       2.529913        68.8424 
 663   0.0000       2.531444        68.8841 
 664   0.0000       2.537642        69.0528 
 665   0.0000       2.541735        69.1641 
 666   0.0000       2.543225        69.2047 
 667   0.0000       2.549910        69.3866 
 668   0.0000       2.556326        69.5612 
 669   0.0000       2.559471        69.6467 
 670   0.0000       2.567287        69.8594 
 671   0.0000       2.575609        70.0859 
 672   0.0000       2.576988        70.1234 
 673   0.0000       2.583840        70.3099 
 674   0.0000       2.588901        70.4476 
 675   0.0000       2.590858        70.5008 
 676   0.0000       2.596799        70.6625 
 677   0.0000       2.599619        70.7392 
 678   0.0000       2.604654        70.8763 
 679   0.0000       2.609805        71.0164 
 680   0.0000       2.613783        71.1247 
 681   0.0000       2.620015        71.2942 
 682   0.0000       2.621532        71.3355 
 683   0.0000       2.625807        71.4519 
 684   0.0000       2.631010        71.5934 
 685   0.0000       2.637890        71.7806 
 686   0.0000       2.643380        71.9300 
 687   0.0000       2.645036        71.9751 
 688   0.0000       2.646730        72.0212 
 689   0.0000       2.650750        72.1306 
 690   0.0000       2.654764        72.2398 
 691   0.0000       2.659030        72.3559 
 692   0.0000       2.666902        72.5701 
 693   0.0000       2.669297        72.6353 
 694   0.0000       2.677427        72.8565 
 695   0.0000       2.681473        72.9666 
 696   0.0000       2.684936        73.0608 
 697   0.0000       2.689117        73.1746 
 698   0.0000       2.696269        73.3692 
 699   0.0000       2.699792        73.4651 
 700   0.0000       2.702775        73.5463 
 701   0.0000       2.710119        73.7461 
 702   0.0000       2.713300        73.8327 
 703   0.0000       2.715565        73.8943 
 704   0.0000       2.721525        74.0565 
 705   0.0000       2.724445        74.1359 
 706   0.0000       2.730140        74.2909 
 707   0.0000       2.739591        74.5481 
 708   0.0000       2.741823        74.6088 
 709   0.0000       2.749017        74.8046 
 710   0.0000       2.750390        74.8419 
 711   0.0000       2.764965        75.2385 
 712   0.0000       2.768327        75.3300 
 713   0.0000       2.771616        75.4195 
 714   0.0000       2.775876        75.5354 
 715   0.0000       2.780140        75.6515 
 716   0.0000       2.781731        75.6947 
 717   0.0000       2.789970        75.9189 
 718   0.0000       2.794924        76.0537 
 719   0.0000       2.796727        76.1028 
 720   0.0000       2.801173        76.2238 
 721   0.0000       2.803753        76.2940 
 722   0.0000       2.813551        76.5606 
 723   0.0000       2.817002        76.6545 
 724   0.0000       2.819988        76.7358 
 725   0.0000       2.826980        76.9260 
 726   0.0000       2.831719        77.0550 
 727   0.0000       2.833660        77.1078 
 728   0.0000       2.838491        77.2393 
 729   0.0000       2.839829        77.2757 
 730   0.0000       2.848932        77.5234 
 731   0.0000       2.852777        77.6280 
 732   0.0000       2.857897        77.7673 
 733   0.0000       2.864215        77.9393 
 734   0.0000       2.867780        78.0363 
 735   0.0000       2.870314        78.1052 
 736   0.0000       2.872847        78.1742 
 737   0.0000       2.885990        78.5318 
 738   0.0000       2.891063        78.6698 
 739   0.0000       2.892535        78.7099 
 740   0.0000       2.896364        78.8141 
 741   0.0000       2.903352        79.0042 
 742   0.0000       2.913224        79.2729 
 743   0.0000       2.923799        79.5606 
 744   0.0000       2.926782        79.6418 
 745   0.0000       2.939063        79.9760 
 746   0.0000       2.947051        80.1933 
 747   0.0000       2.949719        80.2659 
 748   0.0000       2.951021        80.3014 
 749   0.0000       2.955121        80.4129 
 750   0.0000       2.965280        80.6894 
 751   0.0000       2.973224        80.9055 
 752   0.0000       2.982027        81.1451 
 753   0.0000       2.985881        81.2499 
 754   0.0000       2.989617        81.3516 
 755   0.0000       2.993515        81.4577 
 756   0.0000       3.007616        81.8414 
 757   0.0000       3.013102        81.9907 
 758   0.0000       3.015765        82.0631 
 759   0.0000       3.022480        82.2459 
 760   0.0000       3.027522        82.3831 
 761   0.0000       3.038175        82.6730 
 762   0.0000       3.044442        82.8435 
 763   0.0000       3.046856        82.9092 
 764   0.0000       3.049853        82.9907 
 765   0.0000       3.059909        83.2644 
 766   0.0000       3.066403        83.4411 
 767   0.0000       3.070291        83.5469 
 768   0.0000       3.076953        83.7282 
 769   0.0000       3.085686        83.9658 
 770   0.0000       3.094633        84.2092 
 771   0.0000       3.098921        84.3259 
 772   0.0000       3.105852        84.5145 
 773   0.0000       3.112179        84.6867 
 774   0.0000       3.119712        84.8917 
 775   0.0000       3.123203        84.9867 
 776   0.0000       3.127107        85.0929 
 777   0.0000       3.141548        85.4859 
 778   0.0000       3.143101        85.5281 
 779   0.0000       3.148651        85.6791 
 780   0.0000       3.152518        85.7844 
 781   0.0000       3.166253        86.1581 
 782   0.0000       3.186688        86.7142 
 783   0.0000       3.196550        86.9825 
 784   0.0000       3.204224        87.1914 
 785   0.0000       3.209644        87.3389 
 786   0.0000       3.218364        87.5761 
 787   0.0000       3.220165        87.6251 
 788   0.0000       3.228979        87.8650 
 789   0.0000       3.239158        88.1420 
 790   0.0000       3.248319        88.3913 
 791   0.0000       3.254130        88.5494 
 792   0.0000       3.259240        88.6884 
 793   0.0000       3.266378        88.8827 
 794   0.0000       3.274652        89.1078 
 795   0.0000       3.287312        89.4523 
 796   0.0000       3.293078        89.6092 
[...]
      dx2y2   :     0.028656
      dxy     :     0.038054
      f0      :     0.001403  f :     0.018999
      f+1     :     0.000425
      f-1     :     0.002406
      f+2     :     0.002635
      f-2     :     0.001370
      f+3     :     0.006358
      f-3     :     0.004401
      g0      :     0.000050  g :     0.000904
      g+1     :     0.000013
      g-1     :     0.000089
      g+2     :     0.000081
      g-2     :     0.000037
      g+3     :     0.000083
      g-3     :     0.000094
      g+4     :     0.000211
      g-4     :     0.000246
 25 O s       :     3.132230  s :     3.132230
      pz      :     1.328163  p :     4.266532
      px      :     1.554574
      py      :     1.383796
      dz2     :     0.010269  d :     0.100587
      dxz     :     0.002662
      dyz     :     0.021571
      dx2y2   :     0.028330
      dxy     :     0.037755
      f0      :     0.001348  f :     0.018975
      f+1     :     0.000363
      f-1     :     0.002608
      f+2     :     0.002799
      f-2     :     0.001280
      f+3     :     0.006851
      f-3     :     0.003725
      g0      :     0.000054  g :     0.000901
      g+1     :     0.000012
      g-1     :     0.000086
      g+2     :     0.000092
      g-2     :     0.000028
      g+3     :     0.000085
      g-3     :     0.000100
      g+4     :     0.000165
      g-4     :     0.000280
 26 O s       :     3.084637  s :     3.084637
      pz      :     1.521277  p :     4.208267
      px      :     1.396902
      py      :     1.290089
      dz2     :     0.017580  d :     0.183995
      dxz     :     0.020431
      dyz     :     0.033033
      dx2y2   :     0.058619
      dxy     :     0.054333
      f0      :     0.002724  f :     0.027861
      f+1     :     0.002127
      f-1     :     0.002116
      f+2     :     0.004526
      f-2     :     0.001861
      f+3     :     0.010610
      f-3     :     0.003897
      g0      :     0.000068  g :     0.000954
      g+1     :     0.000041
      g-1     :     0.000131
      g+2     :     0.000099
      g-2     :     0.000093
      g+3     :     0.000040
      g-3     :     0.000130
      g+4     :     0.000136
      g-4     :     0.000216
 27 C s       :     2.573750  s :     2.573750
      pz      :     0.965577  p :     2.673028
      px      :     0.801223
      py      :     0.906228
      dz2     :     0.094945  d :     0.520638
      dxz     :     0.149496
      dyz     :     0.031486
      dx2y2   :     0.153501
      dxy     :     0.091210
      f0      :     0.014166  f :     0.146902
      f+1     :     0.020302
      f-1     :     0.013300
      f+2     :     0.014395
      f-2     :     0.024552
      f+3     :     0.034346
      f-3     :     0.025841
      g0      :     0.001164  g :     0.013720
      g+1     :     0.001274
      g-1     :     0.000641
      g+2     :     0.000808
      g-2     :     0.001746
      g+3     :     0.000862
      g-3     :     0.002081
      g+4     :     0.002483
      g-4     :     0.002660
 28 H s       :     0.802280  s :     0.802280
      pz      :     0.070448  p :     0.186026
      px      :     0.065950
      py      :     0.049629
      dz2     :     0.019410  d :     0.064195
      dxz     :     0.013313
      dyz     :     0.008276
      dx2y2   :     0.010227
      dxy     :     0.012968
      f0      :     0.001475  f :     0.008881
      f+1     :     0.002224
      f-1     :     0.000193
      f+2     :     0.001631
      f-2     :     0.001643
      f+3     :     0.000905
      f-3     :     0.000810
 29 H s       :     0.802686  s :     0.802686
      pz      :     0.054173  p :     0.186507
      px      :     0.042859
      py      :     0.089476
      dz2     :     0.004944  d :     0.065043
      dxz     :     0.002638
      dyz     :     0.023677
      dx2y2   :     0.014318
      dxy     :     0.019464
      f0      :     0.001287  f :     0.009175
      f+1     :     0.000188
      f-1     :     0.001179
      f+2     :     0.001583
      f-2     :     0.000658
      f+3     :     0.002233
      f-3     :     0.002048
 30 H s       :     0.802289  s :     0.802289
      pz      :     0.089065  p :     0.186025
      px      :     0.046102
      py      :     0.050858
      dz2     :     0.021550  d :     0.064141
      dxz     :     0.018147
      dyz     :     0.016397
      dx2y2   :     0.004087
      dxy     :     0.003960
      f0      :     0.003014  f :     0.008875
      f+1     :     0.002200
      f-1     :     0.001504
      f+2     :     0.000952
      f-2     :     0.001025
      f+3     :     0.000142
      f-3     :     0.000039
 31 Lis       :     2.112050  s :     2.112050
      pz      :     0.075002  p :     0.449095
      px      :     0.245844
      py      :     0.128250
      dz2     :     0.063218  d :     0.420841
      dxz     :     0.062110
      dyz     :     0.041291
      dx2y2   :     0.103569
      dxy     :     0.150653
      f0      :     0.030905  f :     0.320731
      f+1     :     0.031892
      f-1     :     0.026368
      f+2     :     0.021653
      f-2     :     0.053400
      f+3     :     0.074735
      f-3     :     0.081778
 32 C s       :     2.620739  s :     2.620739
      pz      :     0.692472  p :     2.592641
      px      :     0.900195
      py      :     0.999973
      dz2     :     0.096147  d :     1.128781
      dxz     :     0.114566
      dyz     :     0.217093
      dx2y2   :     0.296212
      dxy     :     0.404763
      f0      :     0.019251  f :     0.349796
      f+1     :     0.017745
      f-1     :     0.025970
      f+2     :     0.044138
      f-2     :     0.040919
      f+3     :     0.140823
      f-3     :     0.060950
      g0      :     0.002948  g :     0.048267
      g+1     :     0.002599
      g-1     :     0.007638
      g+2     :     0.003537
      g-2     :     0.005485
      g+3     :     0.001620
      g-3     :     0.004584
      g+4     :     0.007984
      g-4     :     0.011873
 33 O s       :     3.092922  s :     3.092922
      pz      :     1.475245  p :     4.197665
      px      :     1.235357
      py      :     1.487063
      dz2     :     0.016687  d :     0.178198
      dxz     :     0.033897
      dyz     :     0.014961
      dx2y2   :     0.054370
      dxy     :     0.058283
      f0      :     0.002589  f :     0.027544
      f+1     :     0.002356
      f-1     :     0.001172
      f+2     :     0.001235
      f-2     :     0.005114
      f+3     :     0.010252
      f-3     :     0.004826
      g0      :     0.000059  g :     0.000910
      g+1     :     0.000130
      g-1     :     0.000052
      g+2     :     0.000061
      g-2     :     0.000114
      g+3     :     0.000051
      g-3     :     0.000111
      g+4     :     0.000161
      g-4     :     0.000171
 34 O s       :     3.258422  s :     3.258422
      pz      :     1.305204  p :     4.337153
      px      :     1.537623
      py      :     1.494326
      dz2     :     0.010446  d :     0.094812
      dxz     :     0.000968
      dyz     :     0.020432
      dx2y2   :     0.031609
      dxy     :     0.031358
      f0      :     0.001752  f :     0.020880
      f+1     :     0.000495
      f-1     :     0.002579
      f+2     :     0.003347
      f-2     :     0.000389
      f+3     :     0.007518
      f-3     :     0.004799
      g0      :     0.000056  g :     0.001151
      g+1     :     0.000003
      g-1     :     0.000154
      g+2     :     0.000118
      g-2     :     0.000063
      g+3     :     0.000023
      g-3     :     0.000120
      g+4     :     0.000259
      g-4     :     0.000355
 35 C s       :     2.577905  s :     2.577905
      pz      :     0.984606  p :     2.670946
      px      :     0.747760
      py      :     0.938580
      dz2     :     0.074845  d :     0.495294
      dxz     :     0.073324
      dyz     :     0.107087
      dx2y2   :     0.079173
      dxy     :     0.160866
      f0      :     0.015194  f :     0.142730
      f+1     :     0.017510
      f-1     :     0.012075
      f+2     :     0.014939
      f-2     :     0.017345
      f+3     :     0.037148
      f-3     :     0.028519
      g0      :     0.000748  g :     0.013091
      g+1     :     0.001867
      g-1     :     0.000439
      g+2     :     0.000895
      g-2     :     0.001245
      g+3     :     0.000155
      g-3     :     0.001865
      g+4     :     0.003559
      g-4     :     0.002318
 36 H s       :     0.802453  s :     0.802453
      pz      :     0.083745  p :     0.185968
      px      :     0.039657
      py      :     0.062566
      dz2     :     0.020325  d :     0.064093
      dxz     :     0.013167
      dyz     :     0.017759
      dx2y2   :     0.005850
      dxy     :     0.006991
      f0      :     0.002379  f :     0.009000
      f+1     :     0.001262
      f-1     :     0.001885
      f+2     :     0.001474
      f-2     :     0.001485
      f+3     :     0.000218
      f-3     :     0.000297
 37 H s       :     0.803878  s :     0.803878
      pz      :     0.056628  p :     0.187181
      px      :     0.059269
      py      :     0.071284
      dz2     :     0.006268  d :     0.064893
      dxz     :     0.010051
      dyz     :     0.016208
      dx2y2   :     0.018582
      dxy     :     0.013784
      f0      :     0.001143  f :     0.009168
      f+1     :     0.000811
      f-1     :     0.000883
      f+2     :     0.000351
      f-2     :     0.002057
      f+3     :     0.002029
      f-3     :     0.001893
 38 H s       :     0.802506  s :     0.802506
      pz      :     0.077734  p :     0.185992
      px      :     0.037196
      py      :     0.071062
      dz2     :     0.022725  d :     0.064098
      dxz     :     0.009156
      dyz     :     0.014448
      dx2y2   :     0.007407
      dxy     :     0.010362
      f0      :     0.002236  f :     0.009001
      f+1     :     0.000401
      f-1     :     0.002248
      f+2     :     0.001542
      f-2     :     0.001588
      f+3     :     0.000613
      f-3     :     0.000373


                      *****************************
                      * MAYER POPULATION ANALYSIS *
                      *****************************

  NA   - Mulliken gross atomic population
  ZA   - Total nuclear charge
  QA   - Mulliken gross atomic charge
  VA   - Mayer's total valence
  BVA  - Mayer's bonded valence
  FA   - Mayer's free valence

  ATOM       NA         ZA         QA         VA         BVA        FA
  0 C      6.1227     6.0000    -0.1227     3.8163     3.8163     0.0000
  1 C      5.9525     6.0000     0.0475     3.7133     3.7133     0.0000
  2 C      6.1134     6.0000    -0.1134     3.7875     3.7875    -0.0000
  3 C      6.1196     6.0000    -0.1196     3.7932     3.7932     0.0000
  4 C      5.8875     6.0000     0.1125     3.6431     3.6431     0.0000
  5 C      6.1263     6.0000    -0.1263     3.8250     3.8250     0.0000
  6 C      5.8111     6.0000     0.1889     3.8685     3.8685    -0.0000
  7 H      0.8802     1.0000     0.1198     0.9975     0.9975     0.0000
  8 H      0.8722     1.0000     0.1278     0.9942     0.9942    -0.0000
  9 H      0.8729     1.0000     0.1271     0.9972     0.9972    -0.0000
 10 H      0.8710     1.0000     0.1290     0.9847     0.9847    -0.0000
 11 C      6.2092     6.0000    -0.2092     3.7069     3.7069    -0.0000
 12 C      5.8282     6.0000     0.1718     3.8812     3.8812    -0.0000
 13 C      5.9303     6.0000     0.0697     3.6512     3.6512     0.0000
 14 C      6.0765     6.0000    -0.0765     3.6748     3.6748     0.0000
 15 C      5.8882     6.0000     0.1118     3.9167     3.9167    -0.0000
 16 C      6.0853     6.0000    -0.0853     3.8068     3.8068     0.0000
 17 C      6.1537     6.0000    -0.1537     3.9057     3.9057     0.0000
 18 C      6.1366     6.0000    -0.1366     3.8472     3.8472    -0.0000
 19 H      0.8870     1.0000     0.1130     1.0022     1.0022    -0.0000
 20 H      0.8864     1.0000     0.1136     1.0056     1.0056     0.0000
 21 H      0.8735     1.0000     0.1265     0.9895     0.9895     0.0000
 22 H      0.8708     1.0000     0.1292     0.9823     0.9823     0.0000
 23 H      0.9314     1.0000     0.0686     1.0220     1.0220     0.0000
 24 O      8.3941     8.0000    -0.3941     2.2293     2.2293     0.0000
 25 O      8.4044     8.0000    -0.4044     2.2194     2.2194    -0.0000
 26 O      8.3738     8.0000    -0.3738     2.0687     2.0687    -0.0000
 27 C      6.0841     6.0000    -0.0841     3.8172     3.8172    -0.0000
 28 H      0.8918     1.0000     0.1082     0.9843     0.9843     0.0000
 29 H      0.8686     1.0000     0.1314     0.9808     0.9808    -0.0000
 30 H      0.8902     1.0000     0.1098     0.9851     0.9851    -0.0000
 31 Li     2.5835     3.0000     0.4165     1.1162     1.1162    -0.0000
 32 C      5.6399     6.0000     0.3601     4.1538     4.1538     0.0000
 33 O      8.3508     8.0000    -0.3508     2.1519     2.1519     0.0000
 34 O      8.4268     8.0000    -0.4268     2.1035     2.1035     0.0000
 35 C      6.0854     6.0000    -0.0854     3.7965     3.7965     0.0000
 36 H      0.8725     1.0000     0.1275     0.9855     0.9855     0.0000
 37 H      0.8744     1.0000     0.1256     0.9842     0.9842    -0.0000
 38 H      0.8733     1.0000     0.1267     0.9859     0.9859     0.0000

  Mayer bond orders larger than 0.100000
B(  0-C ,  1-C ) :   1.2952 B(  0-C ,  5-C ) :   1.3885 B(  0-C ,  8-H ) :   0.9486 
B(  1-C ,  2-C ) :   1.2891 B(  1-C , 32-C ) :   1.0222 B(  2-C ,  3-C ) :   1.3925 
B(  2-C ,  9-H ) :   0.9455 B(  3-C ,  4-C ) :   1.2785 B(  3-C , 10-H ) :   0.9514 
B(  4-C ,  5-C ) :   1.2873 B(  4-C ,  6-C ) :   0.9481 B(  5-C ,  7-H ) :   0.9527 
B(  6-C , 11-C ) :   1.2945 B(  6-C , 25-O ) :   1.5309 B( 11-C , 12-C ) :   1.2749 
B( 11-C , 23-H ) :   0.9616 B( 12-C , 13-C ) :   0.9584 B( 12-C , 24-O ) :   1.5495 
B( 13-C , 14-C ) :   1.2570 B( 13-C , 18-C ) :   1.3336 B( 14-C , 15-C ) :   1.3266 
B( 14-C , 20-H ) :   0.9520 B( 15-C , 16-C ) :   1.3289 B( 15-C , 26-O ) :   1.1064 
B( 16-C , 17-C ) :   1.4049 B( 16-C , 21-H ) :   0.9396 B( 17-C , 18-C ) :   1.3778 
B( 17-C , 22-H ) :   0.9519 B( 18-C , 19-H ) :   0.9523 B( 24-O , 31-Li) :   0.5159 
B( 25-O , 31-Li) :   0.5205 B( 26-O , 27-C ) :   0.8977 B( 27-C , 28-H ) :   0.9597 
B( 27-C , 29-H ) :   0.9688 B( 27-C , 30-H ) :   0.9619 B( 32-C , 33-O ) :   1.1978 
B( 32-C , 34-O ) :   1.8950 B( 33-O , 35-C ) :   0.8495 B( 35-C , 36-H ) :   0.9629 
B( 35-C , 37-H ) :   0.9626 B( 35-C , 38-H ) :   0.9627 

-------
TIMINGS
-------

Total SCF time: 0 days 0 hours 33 min 7 sec 

Total time                  ....    1987.662 sec
Sum of individual times     ....    1968.314 sec  ( 99.0%)

Fock matrix formation       ....    1887.171 sec  ( 94.9%)
  XC integration            ....     265.402 sec  ( 14.1% of F)
    Basis function eval.    ....      18.165 sec  (  6.8% of XC)
    Density eval.           ....     115.265 sec  ( 43.4% of XC)
    XC-Functional eval.     ....       2.686 sec  (  1.0% of XC)
    XC-Potential eval.      ....     106.616 sec  ( 40.2% of XC)
Diagonalization             ....      22.097 sec  (  1.1%)
Density matrix formation    ....       1.739 sec  (  0.1%)
Population analysis         ....       5.335 sec  (  0.3%)
Initial guess               ....      10.138 sec  (  0.5%)
Orbital Transformation      ....       0.000 sec  (  0.0%)
Orbital Orthonormalization  ....       0.000 sec  (  0.0%)
DIIS solution               ....      13.781 sec  (  0.7%)
SOSCF solution              ....      18.404 sec  (  0.9%)
Grid generation             ....       9.649 sec  (  0.5%)

Maximum memory used throughout the entire SCF-calculation: 898.8 MB


-------------------------------------------------------------------------------
                          DFT DISPERSION CORRECTION                            
                                                                               
                              DFTD3 V3.1  Rev 1                                
                          USING Becke-Johnson damping                          
-------------------------------------------------------------------------------
The PW6B95 functional is recognized
Active option DFTDOPT                   ...         4   

molecular C6(AA) [au] = 19227.048056 


            DFT-D V3
 parameters
 s6 scaling factor         :     1.0000 
 a1 scaling factor         :     0.2076 
 s8 scaling factor         :     0.7257 
 a2 scaling factor         :     6.3750 
 ad hoc parameters k1-k3   :    16.0000     1.3333    -4.0000 

 Edisp/kcal,au: -15.899349389150  -0.025337223341 
 E6   /kcal   : -11.998446233 
 E8   /kcal   :  -3.900903156 
 % E8         :  24.534986061 

-------------------------   ----------------
Dispersion correction           -0.025337223
-------------------------   ----------------


-------------------------   --------------------
FINAL SINGLE POINT ENERGY     -1080.558398126198
-------------------------   --------------------


                            ***************************************
                            *     ORCA property calculations      *
                            ***************************************

                                    ---------------------
                                    Active property flags
                                    ---------------------
   (+) Dipole Moment


------------------------------------------------------------------------------
                       ORCA ELECTRIC PROPERTIES CALCULATION
------------------------------------------------------------------------------

Dipole Moment Calculation                       ... on
Quadrupole Moment Calculation                   ... off
Polarizability Calculation                      ... off
GBWName                                         ... Aldol_Cry-Li_sp.gbw
Electron density                                ... Aldol_Cry-Li_sp.scfp
The origin for moment calculation is the CENTER OF MASS  = (-2.293645, -1.864158 -0.101443)

-------------
DIPOLE MOMENT
-------------
                                X             Y             Z
Electronic contribution:      3.62466      17.27669      -3.14734
Nuclear contribution   :     -3.97037     -16.05803       3.03461
                        -----------------------------------------
Total Dipole Moment    :     -0.34572       1.21866      -0.11273
                        -----------------------------------------
Magnitude (a.u.)       :      1.27175
Magnitude (Debye)      :      3.23254



--------------------
Rotational spectrum 
--------------------
 
Rotational constants in cm-1:     0.015307     0.003114     0.002619 
Rotational constants in MHz :   458.893823    93.361246    78.521762 

 Dipole components along the rotational axes: 
x,y,z [a.u.] :    -0.291908     1.237800    -0.001137 
x,y,z [Debye]:    -0.741972     3.146237    -0.002890 

 

Timings for individual modules:

Sum of individual times         ...     2000.101 sec (=  33.335 min)
GTO integral calculation        ...       11.758 sec (=   0.196 min)   0.6 %
SCF iterations                  ...     1988.343 sec (=  33.139 min)  99.4 %
                             ****ORCA TERMINATED NORMALLY****
TOTAL RUN TIME: 0 days 0 hours 33 minutes 25 seconds 563 msec
‘Aldol_Cry-Li_freqopt.hess’ -> ‘/home/rothe/Calc/Li_Path/THF/Aldol-Li_Cry/Aldol_Cry-Li_freqopt.hess’
‘Aldol_Cry-Li_freqopt.opt’ -> ‘/home/rothe/Calc/Li_Path/THF/Aldol-Li_Cry/Aldol_Cry-Li_freqopt.opt’
‘Aldol_Cry-Li_sp.cpcm’ -> ‘/home/rothe/Calc/Li_Path/THF/Aldol-Li_Cry/Aldol_Cry-Li_sp.cpcm’
‘Aldol_Cry-Li_sp.densities’ -> ‘/home/rothe/Calc/Li_Path/THF/Aldol-Li_Cry/Aldol_Cry-Li_sp.densities’
‘Aldol_Cry-Li_sp.gbw’ -> ‘/home/rothe/Calc/Li_Path/THF/Aldol-Li_Cry/Aldol_Cry-Li_sp.gbw’
‘Aldol_Cry-Li_sp.job’ -> ‘/home/rothe/Calc/Li_Path/THF/Aldol-Li_Cry/Aldol_Cry-Li_sp.job’
‘Aldol_Cry-Li_sp_property.txt’ -> ‘/home/rothe/Calc/Li_Path/THF/Aldol-Li_Cry/Aldol_Cry-Li_sp_property.txt’
