! Job execution by suborca V 5.02 !
Job started from clu.thch.uni-bonn.de, running /software/cluster/orca_5_0_2_linux_x86-64_openmpi411/orca from /software/cluster/orca_5_0_2_linux_x86-64_openmpi411 on boar228 in /tmp1/rothe/Aldol_Cry-Li_freqopt__QE69G8
Going to copy the following really necessary files:  

                                 *****************
                                 * O   R   C   A *
                                 *****************

                                            #,                                       
                                            ###                                      
                                            ####                                     
                                            #####                                    
                                            ######                                   
                                           ########,                                 
                                     ,,################,,,,,                         
                               ,,#################################,,                 
                          ,,##########################################,,             
                       ,#########################################, ''#####,          
                    ,#############################################,,   '####,        
                  ,##################################################,,,,####,       
                ,###########''''           ''''###############################       
              ,#####''   ,,,,##########,,,,          '''####'''          '####       
            ,##' ,,,,###########################,,,                        '##       
           ' ,,###''''                  '''############,,,                           
         ,,##''                                '''############,,,,        ,,,,,,###''
      ,#''                                            '''#######################'''  
     '                                                          ''''####''''         
             ,#######,   #######,   ,#######,      ##                                
            ,#'     '#,  ##    ##  ,#'     '#,    #''#        ######   ,####,        
            ##       ##  ##   ,#'  ##            #'  '#       #        #'  '#        
            ##       ##  #######   ##           ,######,      #####,   #    #        
            '#,     ,#'  ##    ##  '#,     ,#' ,#      #,         ##   #,  ,#        
             '#######'   ##     ##  '#######'  #'      '#     #####' # '####'        



                  #######################################################
                  #                        -***-                        #
                  #          Department of theory and spectroscopy      #
                  #    Directorship and core code : Frank Neese         #
                  #        Max Planck Institute fuer Kohlenforschung    #
                  #                Kaiser Wilhelm Platz 1               #
                  #                 D-45470 Muelheim/Ruhr               #
                  #                      Germany                        #
                  #                                                     #
                  #                  All rights reserved                #
                  #                        -***-                        #
                  #######################################################


                         Program Version 5.0.2 -  RELEASE  -


 With contributions from (in alphabetic order):
   Daniel Aravena         : Magnetic Suceptibility
   Michael Atanasov       : Ab Initio Ligand Field Theory (pilot matlab implementation)
   Alexander A. Auer      : GIAO ZORA, VPT2 properties, NMR spectrum
   Ute Becker             : Parallelization
   Giovanni Bistoni       : ED, misc. LED, open-shell LED, HFLD
   Martin Brehm           : Molecular dynamics
   Dmytro Bykov           : SCF Hessian
   Vijay G. Chilkuri      : MRCI spin determinant printing, contributions to CSF-ICE
   Dipayan Datta          : RHF DLPNO-CCSD density
   Achintya Kumar Dutta   : EOM-CC, STEOM-CC
   Dmitry Ganyushin       : Spin-Orbit,Spin-Spin,Magnetic field MRCI
   Miquel Garcia          : C-PCM and meta-GGA Hessian, CC/C-PCM, Gaussian charge scheme
   Yang Guo               : DLPNO-NEVPT2, F12-NEVPT2, CIM, IAO-localization
   Andreas Hansen         : Spin unrestricted coupled pair/coupled cluster methods
   Benjamin Helmich-Paris : MC-RPA, TRAH-SCF, COSX integrals
   Lee Huntington         : MR-EOM, pCC
   Robert Izsak           : Overlap fitted RIJCOSX, COSX-SCS-MP3, EOM
   Marcus Kettner         : VPT2
   Christian Kollmar      : KDIIS, OOCD, Brueckner-CCSD(T), CCSD density, CASPT2, CASPT2-K
   Simone Kossmann        : Meta GGA functionals, TD-DFT gradient, OOMP2, MP2 Hessian
   Martin Krupicka        : Initial AUTO-CI
   Lucas Lang             : DCDCAS
   Marvin Lechner         : AUTO-CI (C++ implementation), FIC-MRCC
   Dagmar Lenk            : GEPOL surface, SMD
   Dimitrios Liakos       : Extrapolation schemes; Compound Job, initial MDCI parallelization
   Dimitrios Manganas     : Further ROCIS development; embedding schemes
   Dimitrios Pantazis     : SARC Basis sets
   Anastasios Papadopoulos: AUTO-CI, single reference methods and gradients
   Taras Petrenko         : DFT Hessian,TD-DFT gradient, ASA, ECA, R-Raman, ABS, FL, XAS/XES, NRVS
   Peter Pinski           : DLPNO-MP2, DLPNO-MP2 Gradient
   Christoph Reimann      : Effective Core Potentials
   Marius Retegan         : Local ZFS, SOC
   Christoph Riplinger    : Optimizer, TS searches, QM/MM, DLPNO-CCSD(T), (RO)-DLPNO pert. Triples
   Tobias Risthaus        : Range-separated hybrids, TD-DFT gradient, RPA, STAB
   Michael Roemelt        : Original ROCIS implementation
   Masaaki Saitow         : Open-shell DLPNO-CCSD energy and density
   Barbara Sandhoefer     : DKH picture change effects
   Avijit Sen             : IP-ROCIS
   Kantharuban Sivalingam : CASSCF convergence, NEVPT2, FIC-MRCI
   Bernardo de Souza      : ESD, SOC TD-DFT
   Georgi Stoychev        : AutoAux, RI-MP2 NMR, DLPNO-MP2 response
   Willem Van den Heuvel  : Paramagnetic NMR
   Boris Wezisla          : Elementary symmetry handling
   Frank Wennmohs         : Technical directorship


 We gratefully acknowledge several colleagues who have allowed us to
 interface, adapt or use parts of their codes:
   Stefan Grimme, W. Hujo, H. Kruse, P. Pracht,  : VdW corrections, initial TS optimization,
                  C. Bannwarth, S. Ehlert          DFT functionals, gCP, sTDA/sTD-DF
   Ed Valeev, F. Pavosevic, A. Kumar             : LibInt (2-el integral package), F12 methods
   Garnet Chan, S. Sharma, J. Yang, R. Olivares  : DMRG
   Ulf Ekstrom                                   : XCFun DFT Library
   Mihaly Kallay                                 : mrcc  (arbitrary order and MRCC methods)
   Jiri Pittner, Ondrej Demel                    : Mk-CCSD
   Frank Weinhold                                : gennbo (NPA and NBO analysis)
   Christopher J. Cramer and Donald G. Truhlar   : smd solvation model
   Lars Goerigk                                  : TD-DFT with DH, B97 family of functionals
   V. Asgeirsson, H. Jonsson                     : NEB implementation
   FAccTs GmbH                                   : IRC, NEB, NEB-TS, DLPNO-Multilevel, CI-OPT
                                                   MM, QMMM, 2- and 3-layer-ONIOM, Crystal-QMMM,
                                                   LR-CPCM, SF, NACMEs, symmetry and pop. for TD-DFT,
                                                   nearIR, NL-DFT gradient (VV10), updates on ESD,
                                                   ML-optimized integration grids
   S Lehtola, MJT Oliveira, MAL Marques          : LibXC Library
   Liviu Ungur et al                             : ANISO software


 Your calculation uses the libint2 library for the computation of 2-el integrals
 For citations please refer to: http://libint.valeyev.net

 Your ORCA version has been built with support for libXC version: 5.1.0
 For citations please refer to: https://tddft.org/programs/libxc/

 This ORCA versions uses:
   CBLAS   interface :  Fast vector & matrix operations
   LAPACKE interface :  Fast linear algebra routines
   SCALAPACK package :  Parallel linear algebra routines
   Shared memory     :  Shared parallel matrices
   BLAS/LAPACK       :  OpenBLAS 0.3.15  USE64BITINT DYNAMIC_ARCH NO_AFFINITY Barcelona SINGLE_THREADED
        Core in use  :  Barcelona
   Copyright (c) 2011-2014, The OpenBLAS Project


Your calculation utilizes the atom-pairwise dispersion correction
with the Becke-Johnson damping scheme (D3BJ)
Cite in your paper:
S.Grimme, S.Ehrlich, L.Goerigk, J Comput Chem, (2011), 32, 1456–1465 
S.Grimme, J.Antony, S.Ehrlich and H.Krieg, J.Chem.Phys., 132, (2010), 154104 
   

================================================================================

----- Orbital basis set information -----
Your calculation utilizes the basis: def2-TZVP
   F. Weigend and R. Ahlrichs, Phys. Chem. Chem. Phys. 7, 3297 (2005).

----- AuxJ basis set information -----
Your calculation utilizes the auxiliary basis: def2/J
   F. Weigend, Phys. Chem. Chem. Phys. 8, 1057 (2006).

================================================================================
                                        WARNINGS
                       Please study these warnings very carefully!
================================================================================


WARNING: Geometry Optimization
  ===> : Switching off AutoStart
         For restart on a previous wavefunction, please use MOREAD

INFO   : the flag for use of the SHARK integral package has been found!

================================================================================
                                       INPUT FILE
================================================================================
NAME = Aldol_Cry-Li_freqopt.inp
|  1> ! TPSS D3BJ def2-TZVP RI def2/J CPCM(THF)
|  2> ! Opt numfreq Pal4
|  3> ! SlowConv
|  4> 
|  5> * xyz 0 1
|  6> C        -5.06473802321747   -0.08461042010810    0.21009624509569
|  7> C        -5.16617045962520   -1.45775027547744   -0.00920740873201
|  8> C        -4.02569995404491   -2.18743214225424   -0.34332449723516
|  9> C        -2.80305019316509   -1.55793352413384   -0.45833855387515
| 10> C        -2.69528680699477   -0.18515385231650   -0.24007713662487
| 11> C        -3.84052475903621    0.54044509854754    0.08847918082753
| 12> C        -1.40678854789076    0.54848923964513   -0.40771600730913
| 13> H        -3.74788145062861    1.60480993231450    0.24259555358769
| 14> H        -5.94652776594719    0.48048324622726    0.46581715769162
| 15> H        -4.12389869889584   -3.24825475133535   -0.51839236092460
| 16> H        -1.93485577847519   -2.12826935003008   -0.74697377475644
| 17> C        -0.21525780734539   -0.10900492156817   -0.09629070408021
| 18> C         1.04617567134891    0.47325806528997   -0.28323997724847
| 19> C         2.26688992019173   -0.32114714898133    0.02552496387005
| 20> C         2.29253696515538   -1.71034568538045   -0.09340348401708
| 21> C         3.45910585369174   -2.41246416085930    0.18022911192294
| 22> C         4.60648926337402   -1.71889504454373    0.57423669583304
| 23> C         4.58089293023648   -0.34367768145007    0.68296574540516
| 24> C         3.42027007505712    0.35814455457858    0.40556311791246
| 25> H         3.38784155175873    1.43379914810403    0.48240045767376
| 26> H         1.40837590442795   -2.22707241213166   -0.42669131611622
| 27> H         5.50114430369533   -2.28417105946196    0.78154556969938
| 28> H         5.47277980767591    0.18566893922504    0.98151428619595
| 29> H        -0.27185737664755   -1.09496324806249    0.33078652123555
| 30> O         1.21444282841879    1.65455422235761   -0.70457285103207
| 31> O        -1.47652249673646    1.73987575123867   -0.83218225620661
| 32> O         3.58985553017002   -3.76575299486799    0.09262219529856
| 33> C         2.46636475575920   -4.54049962784494   -0.27413755238512
| 34> H         1.64958484328761   -4.42039248406424    0.44361466319171
| 35> H         2.81216557789627   -5.57256786764241   -0.26113492844369
| 36> H         2.11626829806283   -4.28612473964078   -1.27879444751937
| 37> Li       -0.07901658354919    2.72116458548089   -1.16712282138197
| 38> C        -6.45980988347264   -2.17203547436064    0.07610558798094
| 39> O        -7.48565723540056   -1.36166158244568    0.35170639363009
| 40> O        -6.59187269264676   -3.36653973872257   -0.09306078172371
| 41> C        -8.77479068765893   -1.96462328028193    0.43780726442678
| 42> H        -8.98587304443535   -2.53290734922007   -0.47002030841328
| 43> H        -9.47787351280386   -1.14488291817478    0.55621495091655
| 44> H        -8.81737035548917   -2.63948412584707    1.29485541183413
| 45> *
| 46> 
| 47>                          ****END OF INPUT****
================================================================================

                       *****************************
                       * Geometry Optimization Run *
                       *****************************

Geometry optimization settings:
Update method            Update   .... BFGS
Choice of coordinates    CoordSys .... Z-matrix Internals
Initial Hessian          InHess   .... Almoef's Model

Convergence Tolerances:
Energy Change            TolE     ....  5.0000e-06 Eh
Max. Gradient            TolMAXG  ....  3.0000e-04 Eh/bohr
RMS Gradient             TolRMSG  ....  1.0000e-04 Eh/bohr
Max. Displacement        TolMAXD  ....  4.0000e-03 bohr
RMS Displacement         TolRMSD  ....  2.0000e-03 bohr
Strict Convergence                ....  False
------------------------------------------------------------------------------
                        ORCA OPTIMIZATION COORDINATE SETUP
------------------------------------------------------------------------------

The optimization will be done in new redundant internal coordinates
Making redundant internal coordinates   ...  (new redundants) done
Evaluating the initial hessian          ...  (Almloef) done
Evaluating the coordinates              ...  done
Calculating the B-matrix                .... done
Calculating the G-matrix                .... done
Diagonalizing the G-matrix              .... done
Small eigenvalue found = 2.843e-03
Small eigenvalue found = 6.888e-03
Small eigenvalue found = 1.302e-02
Small eigenvalue found = 1.668e-02
Small eigenvalue found = 2.813e-02
The first mode is                       ....   80
The number of degrees of freedom        ....  111

    -----------------------------------------------------------------
                    Redundant Internal Coordinates


    -----------------------------------------------------------------
         Definition                    Initial Value    Approx d2E/dq
    -----------------------------------------------------------------
      1. B(C   1,C   0)                  1.3942         0.615148   
      2. B(C   2,C   1)                  1.3945         0.614462   
      3. B(C   3,C   2)                  1.3800         0.648203   
      4. B(C   4,C   3)                  1.3942         0.615245   
      5. B(C   5,C   4)                  1.3950         0.613435   
      6. B(C   5,C   0)                  1.3799         0.648363   
      7. B(C   6,C   4)                  1.4922         0.429277   
      8. B(H   7,C   5)                  1.0794         0.374334   
      9. B(H   8,C   0)                  1.0781         0.376206   
     10. B(H   9,C   2)                  1.0796         0.374060   
     11. B(H  10,C   3)                  1.0781         0.376156   
     12. B(C  11,C   6)                  1.3961         0.611004   
     13. B(C  12,C  11)                  1.4019         0.598172   
     14. B(C  13,C  12)                  1.4888         0.434602   
     15. B(C  14,C  13)                  1.3945         0.614517   
     16. B(C  15,C  14)                  1.3888         0.627588   
     17. B(C  16,C  15)                  1.3974         0.608007   
     18. B(C  17,C  16)                  1.3797         0.648780   
     19. B(C  18,C  17)                  1.3844         0.637793   
     20. B(C  18,C  13)                  1.3915         0.621462   
     21. B(H  19,C  18)                  1.0789         0.375111   
     22. B(H  20,C  14)                  1.0770         0.377780   
     23. B(H  21,C  16)                  1.0784         0.375793   
     24. B(H  22,C  17)                  1.0793         0.374592   
     25. B(H  23,C  11)                  1.0760         0.379146   
     26. B(O  24,C  12)                  1.2654         0.884361   
     27. B(O  25,C   6)                  1.2667         0.880341   
     28. B(O  26,C  15)                  1.3624         0.619289   
     29. B(C  27,O  26)                  1.4131         0.513985   
     30. B(H  28,C  27)                  1.0939         0.354914   
     31. B(H  28,H  10)                  4.4181         0.000000   
     32. B(H  29,C  27)                  1.0885         0.362041   
     33. B(H  30,C  27)                  1.0939         0.354982   
     34. B(Li 31,O  25)                  1.7402         0.750352   
     35. B(Li 31,O  24)                  1.7392         0.753120   
     36. B(C  32,C   1)                  1.4802         0.448574   
     37. B(O  33,C  32)                  1.3360         0.682264   
     38. B(O  34,C  32)                  1.2136         1.069701   
     39. B(C  35,O  33)                  1.4258         0.490676   
     40. B(H  36,C  35)                  1.0916         0.357952   
     41. B(H  37,C  35)                  1.0864         0.364860   
     42. B(H  38,C  35)                  1.0917         0.357874   
     43. A(C   1,C   0,H   8)          119.6062         0.355062   
     44. A(C   1,C   0,C   5)          119.7878         0.436958   
     45. A(C   5,C   0,H   8)          120.6042         0.358248   
     46. A(C   2,C   1,C  32)          118.4278         0.409042   
     47. A(C   0,C   1,C  32)          121.9903         0.409123   
     48. A(C   0,C   1,C   2)          119.5718         0.432754   
     49. A(C   1,C   2,H   9)          118.5931         0.354651   
     50. A(C   3,C   2,H   9)          121.0161         0.357884   
     51. A(C   1,C   2,C   3)          120.3880         0.436851   
     52. A(C   4,C   3,H  10)          120.0364         0.355064   
     53. A(C   2,C   3,H  10)          119.6346         0.358225   
     54. A(C   2,C   3,C   4)          120.3041         0.436951   
     55. A(C   3,C   4,C   6)          122.2265         0.405964   
     56. A(C   5,C   4,C   6)          118.6613         0.405752   
     57. A(C   3,C   4,C   5)          119.0499         0.432636   
     58. A(C   0,C   5,C   4)          120.8957         0.436738   
     59. A(C   0,C   5,H   7)          120.6767         0.357944   
     60. A(C   4,C   5,H   7)          118.4274         0.354594   
     61. A(C  11,C   6,O  25)          124.3821         0.458266   
     62. A(C   4,C   6,C  11)          118.7100         0.405468   
     63. A(C   4,C   6,O  25)          116.9076         0.429910   
     64. A(C  12,C  11,H  23)          118.7424         0.353848   
     65. A(C   6,C  11,H  23)          118.3728         0.355124   
     66. A(C   6,C  11,C  12)          122.8630         0.430148   
     67. A(C  13,C  12,O  24)          117.2668         0.431216   
     68. A(C  11,C  12,O  24)          123.4903         0.456875   
     69. A(C  11,C  12,C  13)          119.2429         0.404831   
     70. A(C  14,C  13,C  18)          119.6285         0.433557   
     71. A(C  12,C  13,C  18)          118.4109         0.407574   
     72. A(C  12,C  13,C  14)          121.9340         0.406764   
     73. A(C  15,C  14,H  20)          120.5323         0.356523   
     74. A(C  13,C  14,H  20)          119.2925         0.355252   
     75. A(C  13,C  14,C  15)          120.1510         0.434322   
     76. A(C  14,C  15,C  16)          119.6254         0.433491   
     77. A(C  16,C  15,O  26)          115.6157         0.429628   
     78. A(C  14,C  15,O  26)          124.7587         0.432081   
     79. A(C  15,C  16,C  17)          120.1113         0.436090   
     80. A(C  17,C  16,H  21)          121.5140         0.358220   
     81. A(C  15,C  16,H  21)          118.3737         0.354294   
     82. A(C  16,C  17,C  18)          120.3347         0.439868   
     83. A(C  18,C  17,H  22)          119.9732         0.356987   
     84. A(C  16,C  17,H  22)          119.6915         0.358025   
     85. A(C  17,C  18,H  19)          121.0886         0.357071   
     86. A(C  13,C  18,H  19)          118.7680         0.355502   
     87. A(C  13,C  18,C  17)          120.1429         0.436468   
     88. A(C  12,O  24,Li 31)          124.2067         0.516033   
     89. A(C   6,O  25,Li 31)          123.4139         0.515237   
     90. A(C  15,O  26,C  27)          119.0101         0.414222   
     91. A(H  29,C  27,H  30)          109.4581         0.290431   
     92. A(H  28,C  27,H  30)          109.7610         0.289527   
     93. A(O  26,C  27,H  30)          111.4272         0.339049   
     94. A(H  28,C  27,H  29)          109.4781         0.290423   
     95. A(O  26,C  27,H  29)          105.3160         0.340166   
     96. A(O  26,C  27,H  28)          111.2919         0.339038   
     97. A(O  24,Li 31,O  25)          101.5516         0.546104   
     98. A(O  33,C  32,O  34)          122.8327         0.481414   
     99. A(C   1,C  32,O  34)          124.1959         0.448843   
    100. A(C   1,C  32,O  33)          112.9696         0.414018   
    101. A(C  32,O  33,C  35)          116.7555         0.417955   
    102. A(O  33,C  35,H  38)          110.1271         0.336891   
    103. A(H  36,C  35,H  37)          110.9957         0.291166   
    104. A(O  33,C  35,H  37)          105.8203         0.337978   
    105. A(O  33,C  35,H  36)          110.1676         0.336903   
    106. A(H  37,C  35,H  38)          110.8322         0.291156   
    107. A(H  36,C  35,H  38)          108.8763         0.290284   
    108. D(C  32,C   1,C   0,H   8)      1.0159         0.026160   
    109. D(C   2,C   1,C   0,H   8)    179.8357         0.026160   
    110. D(C   2,C   1,C   0,C   5)      0.3173         0.026160   
    111. D(C  32,C   1,C   0,C   5)   -178.5025         0.026160   
    112. D(H   9,C   2,C   1,C  32)     -0.5955         0.026098   
    113. D(C   3,C   2,C   1,C  32)    178.8016         0.026098   
    114. D(C   3,C   2,C   1,C   0)     -0.0602         0.026098   
    115. D(H   9,C   2,C   1,C   0)   -179.4573         0.026098   
    116. D(H  10,C   3,C   2,H   9)      1.2640         0.029244   
    117. D(H  10,C   3,C   2,C   1)   -178.1183         0.029244   
    118. D(C   4,C   3,C   2,H   9)    179.4511         0.029244   
    119. D(C   4,C   3,C   2,C   1)      0.0689         0.029244   
    120. D(C   6,C   4,C   3,C   2)   -177.4197         0.026169   
    121. D(C   5,C   4,C   3,C   2)     -0.3288         0.026169   
    122. D(C   5,C   4,C   3,H  10)    177.8511         0.026169   
    123. D(C   6,C   4,C   3,H  10)      0.7602         0.026169   
    124. D(H   7,C   5,C   4,C   6)     -2.0137         0.026006   
    125. D(C   0,C   5,C   4,C   6)    177.7874         0.026006   
    126. D(C   0,C   5,C   4,C   3)      0.5919         0.026006   
    127. D(H   7,C   5,C   0,H   8)     -0.3050         0.029259   
    128. D(H   7,C   5,C   0,C   1)    179.2085         0.029259   
    129. D(H   7,C   5,C   4,C   3)   -179.2092         0.026006   
    130. D(C   4,C   5,C   0,H   8)    179.8984         0.029259   
    131. D(C   4,C   5,C   0,C   1)     -0.5881         0.029259   
    132. D(O  25,C   6,C   4,C   5)    -30.7358         0.012592   
    133. D(O  25,C   6,C   4,C   3)    146.3660         0.012592   
    134. D(C  11,C   6,C   4,C   5)    149.4408         0.012592   
    135. D(C  11,C   6,C   4,C   3)    -33.4575         0.012592   
    136. D(H  23,C  11,C   6,C   4)     -4.9502         0.025788   
    137. D(C  12,C  11,C   6,O  25)     -3.0339         0.025788   
    138. D(C  12,C  11,C   6,C   4)    176.7753         0.025788   
    139. D(H  23,C  11,C   6,O  25)    175.2405         0.025788   
    140. D(O  24,C  12,C  11,H  23)   -175.7704         0.024659   
    141. D(O  24,C  12,C  11,C   6)      2.4980         0.024659   
    142. D(C  13,C  12,C  11,H  23)      4.1480         0.024659   
    143. D(C  13,C  12,C  11,C   6)   -177.5836         0.024659   
    144. D(C  18,C  13,C  12,O  24)     27.5784         0.012897   
    145. D(C  18,C  13,C  12,C  11)   -152.3450         0.012897   
    146. D(C  14,C  13,C  12,O  24)   -150.5358         0.012897   
    147. D(C  14,C  13,C  12,C  11)     29.5407         0.012897   
    148. D(H  20,C  14,C  13,C  18)   -177.5201         0.026103   
    149. D(H  20,C  14,C  13,C  12)      0.5717         0.026103   
    150. D(C  15,C  14,C  13,C  18)      0.6990         0.026103   
    151. D(C  15,C  14,C  13,C  12)    178.7908         0.026103   
    152. D(O  26,C  15,C  14,H  20)     -1.6880         0.027296   
    153. D(O  26,C  15,C  14,C  13)   -179.8848         0.027296   
    154. D(C  16,C  15,C  14,H  20)    178.1511         0.027296   
    155. D(C  16,C  15,C  14,C  13)     -0.0457         0.027296   
    156. D(H  21,C  16,C  15,O  26)     -0.1394         0.025522   
    157. D(H  21,C  16,C  15,C  14)   -179.9928         0.025522   
    158. D(C  17,C  16,C  15,O  26)    179.4883         0.025522   
    159. D(C  17,C  16,C  15,C  14)     -0.3652         0.025522   
    160. D(H  22,C  17,C  16,H  21)      0.0189         0.029299   
    161. D(H  22,C  17,C  16,C  15)   -179.5968         0.029299   
    162. D(C  18,C  17,C  16,H  21)    179.7331         0.029299   
    163. D(C  18,C  17,C  16,C  15)      0.1174         0.029299   
    164. D(C  13,C  18,C  17,H  22)   -179.7435         0.028249   
    165. D(C  13,C  18,C  17,C  16)      0.5431         0.028249   
    166. D(H  19,C  18,C  13,C  14)    179.3147         0.026733   
    167. D(H  19,C  18,C  13,C  12)      1.1558         0.026733   
    168. D(C  17,C  18,C  13,C  14)     -0.9486         0.026733   
    169. D(H  19,C  18,C  17,C  16)   -179.7265         0.028249   
    170. D(C  17,C  18,C  13,C  12)   -179.1076         0.026733   
    171. D(H  19,C  18,C  17,H  22)     -0.0130         0.028249   
    172. D(Li 31,O  24,C  12,C  13)    177.9541         0.061834   
    173. D(Li 31,O  24,C  12,C  11)     -2.1260         0.061834   
    174. D(Li 31,O  25,C   6,C  11)      3.0724         0.061198   
    175. D(Li 31,O  25,C   6,C   4)   -176.7400         0.061198   
    176. D(C  27,O  26,C  15,C  16)    178.7621         0.028133   
    177. D(C  27,O  26,C  15,C  14)     -1.3930         0.028133   
    178. D(H  30,C  27,O  26,C  15)     62.1899         0.020926   
    179. D(H  29,C  27,O  26,C  15)   -179.2221         0.020926   
    180. D(H  28,C  27,O  26,C  15)    -60.6813         0.020926   
    181. D(O  24,Li 31,O  25,C   6)     -2.2221         0.005785   
    182. D(O  25,Li 31,O  24,C  12)      1.7785         0.005819   
    183. D(O  34,C  32,C   1,C   2)      1.9765         0.013718   
    184. D(O  34,C  32,C   1,C   0)   -179.1907         0.013718   
    185. D(O  33,C  32,C   1,C   2)   -177.5504         0.013718   
    186. D(O  33,C  32,C   1,C   0)      1.2824         0.013718   
    187. D(C  35,O  33,C  32,O  34)     -0.2102         0.034691   
    188. D(C  35,O  33,C  32,C   1)    179.3241         0.034691   
    189. D(H  38,C  35,O  33,C  32)     66.2270         0.019013   
    190. D(H  37,C  35,O  33,C  32)   -173.9370         0.019013   
    191. D(H  36,C  35,O  33,C  32)    -53.8841         0.019013   
    -----------------------------------------------------------------

Number of atoms                         .... 39
Number of degrees of freedom            .... 191

         *************************************************************
         *                GEOMETRY OPTIMIZATION CYCLE   1            *
         *************************************************************
---------------------------------
CARTESIAN COORDINATES (ANGSTROEM)
---------------------------------
  C     -5.064738   -0.084610    0.210096
  C     -5.166170   -1.457750   -0.009207
  C     -4.025700   -2.187432   -0.343324
  C     -2.803050   -1.557934   -0.458339
  C     -2.695287   -0.185154   -0.240077
  C     -3.840525    0.540445    0.088479
  C     -1.406789    0.548489   -0.407716
  H     -3.747881    1.604810    0.242596
  H     -5.946528    0.480483    0.465817
  H     -4.123899   -3.248255   -0.518392
  H     -1.934856   -2.128269   -0.746974
  C     -0.215258   -0.109005   -0.096291
  C      1.046176    0.473258   -0.283240
  C      2.266890   -0.321147    0.025525
  C      2.292537   -1.710346   -0.093403
  C      3.459106   -2.412464    0.180229
  C      4.606489   -1.718895    0.574237
  C      4.580893   -0.343678    0.682966
  C      3.420270    0.358145    0.405563
  H      3.387842    1.433799    0.482400
  H      1.408376   -2.227072   -0.426691
  H      5.501144   -2.284171    0.781546
  H      5.472780    0.185669    0.981514
  H     -0.271857   -1.094963    0.330787
  O      1.214443    1.654554   -0.704573
  O     -1.476522    1.739876   -0.832182
  O      3.589856   -3.765753    0.092622
  C      2.466365   -4.540500   -0.274138
  H      1.649585   -4.420392    0.443615
  H      2.812166   -5.572568   -0.261135
  H      2.116268   -4.286125   -1.278794
  Li    -0.079017    2.721165   -1.167123
  C     -6.459810   -2.172035    0.076106
  O     -7.485657   -1.361662    0.351706
  O     -6.591873   -3.366540   -0.093061
  C     -8.774791   -1.964623    0.437807
  H     -8.985873   -2.532907   -0.470020
  H     -9.477874   -1.144883    0.556215
  H     -8.817370   -2.639484    1.294855

----------------------------
CARTESIAN COORDINATES (A.U.)
----------------------------
  NO LB      ZA    FRAG     MASS         X           Y           Z
   0 C     6.0000    0    12.011   -9.570968   -0.159891    0.397024
   1 C     6.0000    0    12.011   -9.762647   -2.754749   -0.017399
   2 C     6.0000    0    12.011   -7.607470   -4.133648   -0.648789
   3 C     6.0000    0    12.011   -5.296997   -2.944068   -0.866134
   4 C     6.0000    0    12.011   -5.093354   -0.349890   -0.453680
   5 C     6.0000    0    12.011   -7.257540    1.021293    0.167201
   6 C     6.0000    0    12.011   -2.658445    1.036494   -0.770472
   7 H     1.0000    0     1.008   -7.082470    3.032651    0.458439
   8 H     1.0000    0     1.008  -11.237309    0.907982    0.880267
   9 H     1.0000    0     1.008   -7.793039   -6.138312   -0.979620
  10 H     1.0000    0     1.008   -3.656348   -4.021846   -1.411576
  11 C     6.0000    0    12.011   -0.406778   -0.205989   -0.181963
  12 C     6.0000    0    12.011    1.976986    0.894328   -0.535246
  13 C     6.0000    0    12.011    4.283801   -0.606880    0.048235
  14 C     6.0000    0    12.011    4.332267   -3.232085   -0.176507
  15 C     6.0000    0    12.011    6.536763   -4.558897    0.340584
  16 C     6.0000    0    12.011    8.705003   -3.248241    1.085150
  17 C     6.0000    0    12.011    8.656633   -0.649457    1.290618
  18 C     6.0000    0    12.011    6.463374    0.676795    0.766403
  19 H     1.0000    0     1.008    6.402093    2.709488    0.911605
  20 H     1.0000    0     1.008    2.661445   -4.208557   -0.806330
  21 H     1.0000    0     1.008   10.395656   -4.316458    1.476907
  22 H     1.0000    0     1.008   10.342055    0.350863    1.854793
  23 H     1.0000    0     1.008   -0.513736   -2.069181    0.625096
  24 O     8.0000    0    15.999    2.294964    3.126654   -1.331450
  25 O     8.0000    0    15.999   -2.790223    3.287889   -1.572597
  26 O     8.0000    0    15.999    6.783844   -7.116242    0.175031
  27 C     6.0000    0    12.011    4.660754   -8.580301   -0.518045
  28 H     1.0000    0     1.008    3.117264   -8.353331    0.838310
  29 H     1.0000    0     1.008    5.314223  -10.530627   -0.493473
  30 H     1.0000    0     1.008    3.999168   -8.099602   -2.416571
  31 Li    3.0000    0     6.941   -0.149320    5.142256   -2.205542
  32 C     6.0000    0    12.011  -12.207272   -4.104552    0.143819
  33 O     8.0000    0    15.999  -14.145842   -2.573167    0.664629
  34 O     8.0000    0    15.999  -12.456834   -6.361838   -0.175859
  35 C     6.0000    0    12.011  -16.581951   -3.712600    0.827336
  36 H     1.0000    0     1.008  -16.980839   -4.786501   -0.888210
  37 H     1.0000    0     1.008  -17.910585   -2.163515    1.051094
  38 H     1.0000    0     1.008  -16.662415   -4.987902    2.446922

--------------------------------
INTERNAL COORDINATES (ANGSTROEM)
--------------------------------
 C      0   0   0     0.000000000000     0.00000000     0.00000000
 C      1   0   0     1.394236599054     0.00000000     0.00000000
 C      2   1   0     1.394540365006   119.57177206     0.00000000
 C      3   2   1     1.379988833730   120.38804640   359.93975080
 C      4   3   2     1.394193322683   120.30414002     0.06885964
 C      1   2   3     1.379921457156   119.78784923     0.31734888
 C      5   4   3     1.492167129065   122.22651795   182.58030315
 H      6   1   2     1.079447607948   120.67666961   179.20851475
 H      1   2   3     1.078089600754   119.60618800   179.83573524
 H      3   2   1     1.079646404303   118.59306229   180.54268428
 H      4   3   2     1.078125589499   119.63463440   181.88168394
 C      7   5   4     1.396076572823   118.71004921   326.54251997
 C     12   7   5     1.401854000163   122.86295107   176.77529477
 C     13  12   7     1.488811173606   119.24289871   182.41642281
 C     14  13  12     1.394515801332   121.93398008    29.54072818
 C     15  14  13     1.388786564909   120.15096738   178.79084430
 C     16  15  14     1.397415036451   119.62543123   359.95427665
 C     17  16  15     1.379746344168   120.11125281   359.63484676
 C     18  17  16     1.384395926276   120.33468540     0.11739523
 H     19  18  17     1.078882936410   121.08861911   180.27354680
 H     15  14  13     1.076953142189   119.29251706     0.57172387
 H     17  16  15     1.078388419540   118.37367133   180.00716902
 H     18  17  16     1.079259597213   119.69153122   180.40317398
 H     12   7   5     1.075970394208   118.37275600   355.04976909
 O     13  12   7     1.265423185097   123.49025661     2.49799082
 O      7   5   4     1.266663428098   116.90756643   146.36596801
 O     16  15  14     1.362410040330   124.75871522   180.11515888
 C     27  16  15     1.413144216991   119.01005278   358.60703474
 H     28  27  16     1.093948533693   111.29191822   299.31870884
 H     28  27  16     1.088536691352   105.31596207   180.77787525
 H     28  27  16     1.093896517218   111.42719192    62.18992739
 Li    25  13  12     1.739151342523   124.20665816   357.87401887
 C      2   1   3     1.480197490771   121.99026163   181.18013671
 O     33   2   1     1.336048067335   112.96963370     1.28244896
 O     33   2   1     1.213630208830   124.19586379   180.80931883
 C     34  33   2     1.425777411359   116.75550555   179.32410671
 H     36  34  33     1.091628804292   110.16757175   306.11587478
 H     36  34  33     1.086425377327   105.82030737   186.06298152
 H     36  34  33     1.091687554186   110.12709618    66.22698872

---------------------------
INTERNAL COORDINATES (A.U.)
---------------------------
 C      0   0   0     0.000000000000     0.00000000     0.00000000
 C      1   0   0     2.634725338102     0.00000000     0.00000000
 C      2   1   0     2.635299372560   119.57177206     0.00000000
 C      3   2   1     2.607800963619   120.38804640   359.93975080
 C      4   3   2     2.634643557613   120.30414002     0.06885964
 C      1   2   3     2.607673640347   119.78784923     0.31734888
 C      5   4   3     2.819787219972   122.22651795   182.58030315
 H      6   1   2     2.039860354939   120.67666961   179.20851475
 H      1   2   3     2.037294093254   119.60618800   179.83573524
 H      3   2   1     2.040236025606   118.59306229   180.54268428
 H      4   3   2     2.037362102126   119.63463440   181.88168394
 C      7   5   4     2.638202384619   118.71004921   326.54251997
 C     12   7   5     2.649120140051   122.86295107   176.77529477
 C     13  12   7     2.813445383237   119.24289871   182.41642281
 C     14  13  12     2.635252953944   121.93398008    29.54072818
 C     15  14  13     2.624426266146   120.15096738   178.79084430
 C     16  15  14     2.640731714316   119.62543123   359.95427665
 C     17  16  15     2.607342724757   120.11125281   359.63484676
 C     18  17  16     2.616129161577   120.33468540     0.11739523
 H     19  18  17     2.038793280376   121.08861911   180.27354680
 H     15  14  13     2.035146497803   119.29251706     0.57172387
 H     17  16  15     2.037858778923   118.37367133   180.00716902
 H     18  17  16     2.039505066139   119.69153122   180.40317398
 H     12   7   5     2.033289373260   118.37275600   355.04976909
 O     13  12   7     2.391303263348   123.49025661     2.49799082
 O      7   5   4     2.393646982960   116.90756643   146.36596801
 O     16  15  14     2.574581858328   124.75871522   180.11515888
 C     27  16  15     2.670455557848   119.01005278   358.60703474
 H     28  27  16     2.067263133285   111.29191822   299.31870884
 H     28  27  16     2.057036233379   105.31596207   180.77787525
 H     28  27  16     2.067164836392   111.42719192    62.18992739
 Li    25  13  12     3.286519742811   124.20665816   357.87401887
 C      2   1   3     2.797167881674   121.99026163   181.18013671
 O     33   2   1     2.524764949018   112.96963370     1.28244896
 O     33   2   1     2.293428722542   124.19586379   180.80931883
 C     34  33   2     2.694328835399   116.75550555   179.32410671
 H     36  34  33     2.062879480012   110.16757175   306.11587478
 H     36  34  33     2.053046428091   105.82030737   186.06298152
 H     36  34  33     2.062990501221   110.12709618    66.22698872

---------------------
BASIS SET INFORMATION
---------------------
There are 4 groups of distinct atoms

 Group   1 Type C   : 11s6p2d1f contracted to 5s3p2d1f pattern {62111/411/11/1}
 Group   2 Type H   : 5s1p contracted to 3s1p pattern {311/1}
 Group   3 Type O   : 11s6p2d1f contracted to 5s3p2d1f pattern {62111/411/11/1}
 Group   4 Type Li  : 11s3p contracted to 5s3p pattern {62111/111}

Atom   0C    basis set group =>   1
Atom   1C    basis set group =>   1
Atom   2C    basis set group =>   1
Atom   3C    basis set group =>   1
Atom   4C    basis set group =>   1
Atom   5C    basis set group =>   1
Atom   6C    basis set group =>   1
Atom   7H    basis set group =>   2
Atom   8H    basis set group =>   2
Atom   9H    basis set group =>   2
Atom  10H    basis set group =>   2
Atom  11C    basis set group =>   1
Atom  12C    basis set group =>   1
Atom  13C    basis set group =>   1
Atom  14C    basis set group =>   1
Atom  15C    basis set group =>   1
Atom  16C    basis set group =>   1
Atom  17C    basis set group =>   1
Atom  18C    basis set group =>   1
Atom  19H    basis set group =>   2
Atom  20H    basis set group =>   2
Atom  21H    basis set group =>   2
Atom  22H    basis set group =>   2
Atom  23H    basis set group =>   2
Atom  24O    basis set group =>   3
Atom  25O    basis set group =>   3
Atom  26O    basis set group =>   3
Atom  27C    basis set group =>   1
Atom  28H    basis set group =>   2
Atom  29H    basis set group =>   2
Atom  30H    basis set group =>   2
Atom  31Li   basis set group =>   4
Atom  32C    basis set group =>   1
Atom  33O    basis set group =>   3
Atom  34O    basis set group =>   3
Atom  35C    basis set group =>   1
Atom  36H    basis set group =>   2
Atom  37H    basis set group =>   2
Atom  38H    basis set group =>   2
---------------------------------
AUXILIARY/J BASIS SET INFORMATION
---------------------------------
There are 4 groups of distinct atoms

 Group   1 Type C   : 12s5p4d2f1g contracted to 6s4p3d1f1g pattern {711111/2111/211/2/1}
 Group   2 Type H   : 5s2p1d contracted to 3s1p1d pattern {311/2/1}
 Group   3 Type O   : 12s5p4d2f1g contracted to 6s4p3d1f1g pattern {711111/2111/211/2/1}
 Group   4 Type Li  : 12s5p4d2f1g contracted to 6s4p3d1f1g pattern {711111/2111/211/2/1}

Atom   0C    basis set group =>   1
Atom   1C    basis set group =>   1
Atom   2C    basis set group =>   1
Atom   3C    basis set group =>   1
Atom   4C    basis set group =>   1
Atom   5C    basis set group =>   1
Atom   6C    basis set group =>   1
Atom   7H    basis set group =>   2
Atom   8H    basis set group =>   2
Atom   9H    basis set group =>   2
Atom  10H    basis set group =>   2
Atom  11C    basis set group =>   1
Atom  12C    basis set group =>   1
Atom  13C    basis set group =>   1
Atom  14C    basis set group =>   1
Atom  15C    basis set group =>   1
Atom  16C    basis set group =>   1
Atom  17C    basis set group =>   1
Atom  18C    basis set group =>   1
Atom  19H    basis set group =>   2
Atom  20H    basis set group =>   2
Atom  21H    basis set group =>   2
Atom  22H    basis set group =>   2
Atom  23H    basis set group =>   2
Atom  24O    basis set group =>   3
Atom  25O    basis set group =>   3
Atom  26O    basis set group =>   3
Atom  27C    basis set group =>   1
Atom  28H    basis set group =>   2
Atom  29H    basis set group =>   2
Atom  30H    basis set group =>   2
Atom  31Li   basis set group =>   4
Atom  32C    basis set group =>   1
Atom  33O    basis set group =>   3
Atom  34O    basis set group =>   3
Atom  35C    basis set group =>   1
Atom  36H    basis set group =>   2
Atom  37H    basis set group =>   2
Atom  38H    basis set group =>   2


           ************************************************************
           *        Program running with 4 parallel MPI-processes     *
           *              working on a common directory               *
           ************************************************************
------------------------------------------------------------------------------
                           ORCA GTO INTEGRAL CALCULATION
                           -- RI-GTO INTEGRALS CHOSEN --
------------------------------------------------------------------------------
------------------------------------------------------------------------------
                   ___                                                        
                  /   \      - P O W E R E D   B Y -                         
                 /     \                                                     
                 |  |  |   _    _      __       _____    __    __             
                 |  |  |  | |  | |    /  \     |  _  \  |  |  /  |          
                  \  \/   | |  | |   /    \    | | | |  |  | /  /          
                 / \  \   | |__| |  /  /\  \   | |_| |  |  |/  /          
                |  |  |   |  __  | /  /__\  \  |    /   |      \           
                |  |  |   | |  | | |   __   |  |    \   |  |\   \          
                \     /   | |  | | |  |  |  |  | |\  \  |  | \   \       
                 \___/    |_|  |_| |__|  |__|  |_| \__\ |__|  \__/        
                                                                              
                      - O R C A' S   B I G   F R I E N D -                    
                                      &                                       
                       - I N T E G R A L  F E E D E R -                       
                                                                              
 v1 FN, 2020, v2 2021                                                         
------------------------------------------------------------------------------


Reading SHARK input file Aldol_Cry-Li_freqopt.SHARKINP.tmp ... ok
----------------------
SHARK INTEGRAL PACKAGE
----------------------

Number of atoms                             ...     39
Number of basis functions                   ...    817
Number of shells                            ...    321
Maximum angular momentum                    ...      3
Integral batch strategy                     ... SHARK/LIBINT Hybrid
RI-J (if used) integral strategy            ... SPLIT-RIJ (Revised 2003 algorithm where possible)
Printlevel                                  ...      1
Contraction scheme used                     ... SEGMENTED contraction
Coulomb Range Separation                    ... NOT USED
Exchange Range Separation                   ... NOT USED
Finite Nucleus Model                        ... NOT USED
Auxiliary Coulomb fitting basis             ... AVAILABLE
   # of basis functions in Aux-J            ...   1341
   # of shells in Aux-J                     ...    435
   Maximum angular momentum in Aux-J        ...      4
Auxiliary J/K fitting basis                 ... NOT available
Auxiliary Correlation fitting basis         ... NOT available
Auxiliary 'external' fitting basis          ... NOT available
Integral threshold                          ...     2.500000e-11
Primitive cut-off                           ...     2.500000e-12
Primitive pair pre-selection threshold      ...     2.500000e-12

Calculating pre-screening integrals         ... done (  0.3 sec) Dimension = 321
Organizing shell pair data                  ... done (  0.6 sec)
Shell pair information
Total number of shell pairs                 ...     51681
Shell pairs after pre-screening             ...     30809
Total number of primitive shell pairs       ...    159897
Primitive shell pairs kept                  ...     63264
          la=0 lb=0:   7818 shell pairs
          la=1 lb=0:   9012 shell pairs
          la=1 lb=1:   2628 shell pairs
          la=2 lb=0:   4310 shell pairs
          la=2 lb=1:   2521 shell pairs
          la=2 lb=2:    604 shell pairs
          la=3 lb=0:   2035 shell pairs
          la=3 lb=1:   1196 shell pairs
          la=3 lb=2:    545 shell pairs
          la=3 lb=3:    140 shell pairs

Calculating one electron integrals          ... done (  0.2 sec)
Calculating RI/J V-Matrix + Cholesky decomp.... done (  0.3 sec)
Calculating Nuclear repulsion               ... done (  0.0 sec) ENN=   1762.100450416361 Eh

SHARK setup successfully completed in   2.3 seconds

Maximum memory used throughout the entire GTOINT-calculation: 52.0 MB


           ************************************************************
           *        Program running with 4 parallel MPI-processes     *
           *              working on a common directory               *
           ************************************************************
-------------------------------------------------------------------------------
                                 ORCA SCF
-------------------------------------------------------------------------------

------------
SCF SETTINGS
------------
Hamiltonian:
 Density Functional     Method          .... DFT(GTOs)
 Exchange Functional    Exchange        .... TPSS
 Correlation Functional Correlation     .... TPSS
 LDA part of GGA corr.  LDAOpt          .... PW91-LDA
 Gradients option       PostSCFGGA      .... off
   Density functional embedding theory  .... OFF
   NL short-range parameter             ....  5.000000
 RI-approximation to the Coulomb term is turned on
   Number of AuxJ basis functions       .... 1341


General Settings:
 Integral files         IntName         .... Aldol_Cry-Li_freqopt
 Hartree-Fock type      HFTyp           .... RHF
 Total Charge           Charge          ....    0
 Multiplicity           Mult            ....    1
 Number of Electrons    NEL             ....  166
 Basis Dimension        Dim             ....  817
 Nuclear Repulsion      ENuc            ....   1762.1004504164 Eh

Convergence Acceleration:
 DIIS                   CNVDIIS         .... on
   Start iteration      DIISMaxIt       ....     0
   Startup error        DIISStart       ....  0.200000
   # of expansion vecs  DIISMaxEq       ....     5
   Bias factor          DIISBfac        ....   1.050
   Max. coefficient     DIISMaxC        ....  10.000
 Trust-Rad. Augm. Hess. CNVTRAH         .... auto
   Auto Start mean grad. ratio tolernc. ....  1.125000
   Auto Start start iteration           ....    20
   Auto Start num. interpolation iter.  ....    10
   Max. Number of Micro iterations      ....    16
   Max. Number of Macro iterations      .... Maxiter - #DIIS iter
   Number of Davidson start vectors     ....     2
   Converg. threshold I  (grad. norm)   ....   1.000e-05
   Converg. threshold II (energy diff.) ....   1.000e-08
   Grad. Scal. Fac. for Micro threshold ....   0.100
   Minimum threshold for Micro iter.    ....   0.010
   NR start threshold (gradient norm)   ....   0.001
   Initial trust radius                 ....   0.400
   Minimum AH scaling param. (alpha)    ....   1.000
   Maximum AH scaling param. (alpha)    .... 1000.000
   Orbital update algorithm             .... Taylor
   White noise on init. David. guess    .... on
   Maximum white noise                  ....   0.010
   Quad. conv. algorithm                .... NR
 SOSCF                  CNVSOSCF        .... on
   Start iteration      SOSCFMaxIt      ....   150
   Startup grad/error   SOSCFStart      ....  0.001000
 Level Shifting         CNVShift        .... on
   Level shift para.    LevelShift      ....    0.2500
   Turn off err/grad.   ShiftErr        ....    0.0000
 Zerner damping         CNVZerner       .... off
 Static damping         CNVDamp         .... on
   Fraction old density DampFac         ....    0.8500
   Max. Damping (<1)    DampMax         ....    0.9800
   Min. Damping (>=0)   DampMin         ....    0.0000
   Turn off err/grad.   DampErr         ....    0.0300
 Fernandez-Rico         CNVRico         .... off

SCF Procedure:
 Maximum # iterations   MaxIter         ....   125
 SCF integral mode      SCFMode         .... Direct
   Integral package                     .... SHARK and LIBINT hybrid scheme
 Reset frequency        DirectResetFreq ....    20
 Integral Threshold     Thresh          ....  2.500e-11 Eh
 Primitive CutOff       TCut            ....  2.500e-12 Eh

Convergence Tolerance:
 Convergence Check Mode ConvCheckMode   .... Total+1el-Energy
 Convergence forced     ConvForced      .... 0
 Energy Change          TolE            ....  1.000e-08 Eh
 1-El. energy change                    ....  1.000e-05 Eh
 Orbital Gradient       TolG            ....  1.000e-05
 Orbital Rotation angle TolX            ....  1.000e-05
 DIIS Error             TolErr          ....  5.000e-07


Diagonalization of the overlap matrix:
Smallest eigenvalue                        ... 6.648e-06
Time for diagonalization                   ...    0.502 sec
Threshold for overlap eigenvalues          ... 1.000e-08
Number of eigenvalues below threshold      ... 0
Time for construction of square roots      ...    0.321 sec
Total time needed                          ...    0.829 sec

Time for model grid setup =    1.204 sec

------------------------------
INITIAL GUESS: MODEL POTENTIAL
------------------------------
Loading Hartree-Fock densities                     ... done
Calculating cut-offs                               ... done
Initializing the effective Hamiltonian             ... done
Setting up the integral package (SHARK)            ... done
Starting the Coulomb interaction                   ... done (   2.0 sec)
Reading the grid                                   ... done
Mapping shells                                     ... done
Starting the XC term evaluation                    ... done (   1.4 sec)
  promolecular density results
     # of electrons  =    165.984862298
     EX              =   -139.093226134
     EC              =     -5.547547668
     EX+EC           =   -144.640773802
Transforming the Hamiltonian                       ... done (   0.3 sec)
Diagonalizing the Hamiltonian                      ... done (   0.5 sec)
Back transforming the eigenvectors                 ... done (   0.1 sec)
Now organizing SCF variables                       ... done
                      ------------------
                      INITIAL GUESS DONE (   5.6 sec)
                      ------------------
-------------------
DFT GRID GENERATION
-------------------

General Integration Accuracy     IntAcc      ... 4.388
Radial Grid Type                 RadialGrid  ... OptM3 with GC (2021)
Angular Grid (max. ang.)         AngularGrid ... 4 (Lebedev-302)
Angular grid pruning method      GridPruning ... 4 (adaptive)
Weight generation scheme         WeightScheme... Becke
Basis function cutoff            BFCut       ... 1.0000e-11
Integration weight cutoff        WCut        ... 1.0000e-14
Angular grids for H and He will be reduced by one unit
Partially contracted basis set               ... off
Rotationally invariant grid construction     ... off

Total number of grid points                  ...   191378
Total number of batches                      ...     3010
Average number of points per batch           ...       63
Average number of grid points per atom       ...     4907
Time for grid setup =    4.104 sec


--------------------
CPCM SOLVATION MODEL
--------------------
CPCM parameters:
  Epsilon                                         ...       7.2500
  Refrac                                          ...       1.4070
  Rsolv                                           ...       1.3000
  Surface type                                    ... GAUSSIAN VDW
  Epsilon function type                           ...         CPCM
Radii:
 Radius for C  used is    3.8550 Bohr (=   2.0400 Ang.)
 Radius for H  used is    2.4944 Bohr (=   1.3200 Ang.)
 Radius for O  used is    3.4469 Bohr (=   1.8240 Ang.)
 Radius for Li used is    4.1272 Bohr (=   2.1840 Ang.)
Calculating surface                               ...        done! (  0.0s)
GEPOL surface points                              ...         2083
GEPOL Volume                                      ...    2596.3712
GEPOL Surface-area                                ...    1331.1196
Calculating surface distance matrix               ...        done! (  0.1s)
Performing Cholesky decomposition & store         ...        done! (  0.5s)
Overall time for CPCM initialization              ...                 0.6s
--------------
SCF ITERATIONS
--------------
ITER       Energy         Delta-E        Max-DP      RMS-DP      [F,P]     Damp
               ***  Starting incremental Fock matrix formation  ***
  0  -1078.7108165811   0.000000000000 0.16209474  0.00082630  0.3073439 0.8500
  1  -1078.8813023570  -0.170485775913 0.26030332  0.00116325  0.2043693 0.8500
                               ***Turning on DIIS***
  2  -1078.9801158417  -0.098813484703 0.14924041  0.00084828  0.1152789 0.8500
  3  -1079.0374335860  -0.057317744245 0.05508330  0.00036857  0.0591275 0.8500
  4  -1079.0801197379  -0.042686151961 0.04392804  0.00021569  0.0438423 0.8500
  5  -1079.1132584282  -0.033138690262 0.04911181  0.00017007  0.0386946 0.8500
  6  -1079.1403217063  -0.027063278079 0.04415351  0.00014347  0.0340492 0.8500
  7  -1079.1628979494  -0.022576243108 0.23903163  0.00078212  0.0292503 0.0000
  8  -1079.2853821338  -0.122484184420 0.01325258  0.00009077  0.0113378 0.0000
  9  -1079.2855189798  -0.000136845990 0.00294564  0.00002584  0.0095191 0.0000
 10  -1079.2858910683  -0.000372088507 0.00193262  0.00001355  0.0022054 0.0000
                      *** Initiating the SOSCF procedure ***
                           *** Shutting down DIIS ***
                      *** Re-Reading the Fockian *** 
                      *** Removing any level shift *** 
ITER      Energy       Delta-E        Grad      Rot      Max-DP    RMS-DP
 11  -1079.28591764  -0.0000265682  0.000128  0.000128  0.001137  0.000007
               *** Restarting incremental Fock matrix formation ***
 12  -1079.28592037  -0.0000027310  0.000049  0.000210  0.000773  0.000005
 13  -1079.28591948   0.0000008871  0.000155  0.000259  0.000420  0.000003
 14  -1079.28592066  -0.0000011832  0.000013  0.000055  0.000507  0.000003
 15  -1079.28592059   0.0000000695  0.000030  0.000029  0.000220  0.000001
                  ***Gradient check signals convergence***
              ***Rediagonalizing the Fockian in SOSCF/NRSCF***

               *****************************************************
               *                     SUCCESS                       *
               *           SCF CONVERGED AFTER  16 CYCLES          *
               *****************************************************


----------------
TOTAL SCF ENERGY
----------------

Total Energy       :        -1079.28592067 Eh          -29368.86299 eV

Components:
Nuclear Repulsion  :         1762.10045042 Eh           47949.19095 eV
Electronic Energy  :        -2841.38637108 Eh          -77318.05393 eV
One Electron Energy:        -4971.89100880 Eh         -135292.03246 eV
Two Electron Energy:         2130.50463772 Eh           57973.97853 eV
CPCM Dielectric    :           -0.02109869 Eh              -0.57412 eV

Virial components:
Potential Energy   :        -2154.63430413 Eh          -58630.58014 eV
Kinetic Energy     :         1075.34838346 Eh           29261.71715 eV
Virial Ratio       :            2.00366164


DFT components:
N(Alpha)           :       83.000104959041 electrons
N(Beta)            :       83.000104959041 electrons
N(Total)           :      166.000209918082 electrons
E(X)               :     -143.225480091422 Eh       
E(C)               :       -5.576536743403 Eh       
E(XC)              :     -148.802016834824 Eh       
DFET-embed. en.    :        0.000000000000 Eh       
CPCM Solvation Model Properties:
Surface-charge          :           -0.03109363
Charge-correction       :           -0.00004844 Eh              -0.00132 eV
Free-energy (cav+disp)  :  This term is not implemented in the current solvation scheme

---------------
SCF CONVERGENCE
---------------

  Last Energy change         ...   -7.4473e-08  Tolerance :   1.0000e-08
  Last MAX-Density change    ...    1.9178e-04  Tolerance :   1.0000e-07
  Last RMS-Density change    ...    1.4498e-06  Tolerance :   5.0000e-09
  Last Orbital Gradient      ...    1.5549e-06  Tolerance :   1.0000e-05
  Last Orbital Rotation      ...    1.1296e-05  Tolerance :   1.0000e-05

             **** THE GBW FILE WAS UPDATED (Aldol_Cry-Li_freqopt.gbw) ****
             **** DENSITY Aldol_Cry-Li_freqopt.scfp WAS UPDATED ****
             **** ENERGY FILE WAS UPDATED (Aldol_Cry-Li_freqopt.en.tmp) ****
             **** THE GBW FILE WAS UPDATED (Aldol_Cry-Li_freqopt.gbw) ****
             **** DENSITY Aldol_Cry-Li_freqopt.scfp WAS UPDATED ****
----------------
ORBITAL ENERGIES
----------------

  NO   OCC          E(Eh)            E(eV) 
   0   2.0000     -18.931309      -515.1471 
   1   2.0000     -18.915528      -514.7177 
   2   2.0000     -18.872036      -513.5342 
   3   2.0000     -18.857548      -513.1400 
   4   2.0000     -18.856979      -513.1245 
   5   2.0000     -10.109367      -275.0899 
   6   2.0000     -10.054076      -273.5853 
   7   2.0000     -10.053928      -273.5813 
   8   2.0000     -10.046502      -273.3792 
   9   2.0000     -10.036467      -273.1061 
  10   2.0000     -10.033253      -273.0187 
  11   2.0000     -10.007088      -272.3067 
  12   2.0000     -10.002230      -272.1745 
  13   2.0000      -9.998044      -272.0606 
  14   2.0000      -9.997680      -272.0507 
  15   2.0000      -9.996429      -272.0167 
  16   2.0000      -9.994341      -271.9598 
  17   2.0000      -9.993781      -271.9446 
  18   2.0000      -9.988474      -271.8002 
  19   2.0000      -9.988173      -271.7920 
  20   2.0000      -9.986010      -271.7331 
  21   2.0000      -9.980751      -271.5900 
  22   2.0000      -9.963375      -271.1172 
  23   2.0000      -1.856928       -50.5296 
  24   2.0000      -1.043041       -28.3826 
  25   2.0000      -1.001493       -27.2520 
  26   2.0000      -0.959381       -26.1061 
  27   2.0000      -0.953386       -25.9429 
  28   2.0000      -0.943989       -25.6873 
  29   2.0000      -0.813419       -22.1342 
  30   2.0000      -0.800889       -21.7933 
  31   2.0000      -0.736365       -20.0375 
  32   2.0000      -0.719943       -19.5907 
  33   2.0000      -0.704224       -19.1629 
  34   2.0000      -0.700589       -19.0640 
  35   2.0000      -0.689865       -18.7722 
  36   2.0000      -0.669945       -18.2301 
  37   2.0000      -0.644873       -17.5479 
  38   2.0000      -0.609233       -16.5781 
  39   2.0000      -0.583058       -15.8658 
  40   2.0000      -0.567561       -15.4441 
  41   2.0000      -0.552257       -15.0277 
  42   2.0000      -0.531130       -14.4528 
  43   2.0000      -0.520362       -14.1598 
  44   2.0000      -0.502761       -13.6808 
  45   2.0000      -0.488549       -13.2941 
  46   2.0000      -0.469595       -12.7783 
  47   2.0000      -0.449653       -12.2357 
  48   2.0000      -0.445643       -12.1266 
  49   2.0000      -0.443165       -12.0591 
  50   2.0000      -0.440691       -11.9918 
  51   2.0000      -0.434317       -11.8184 
  52   2.0000      -0.425204       -11.5704 
  53   2.0000      -0.419355       -11.4112 
  54   2.0000      -0.412884       -11.2352 
  55   2.0000      -0.407359       -11.0848 
  56   2.0000      -0.400271       -10.8919 
  57   2.0000      -0.396408       -10.7868 
  58   2.0000      -0.390208       -10.6181 
  59   2.0000      -0.379162       -10.3175 
  60   2.0000      -0.376288       -10.2393 
  61   2.0000      -0.374000       -10.1771 
  62   2.0000      -0.368036       -10.0148 
  63   2.0000      -0.359675        -9.7873 
  64   2.0000      -0.351382        -9.5616 
  65   2.0000      -0.338652        -9.2152 
  66   2.0000      -0.335595        -9.1320 
  67   2.0000      -0.329833        -8.9752 
  68   2.0000      -0.323251        -8.7961 
  69   2.0000      -0.320453        -8.7200 
  70   2.0000      -0.315209        -8.5773 
  71   2.0000      -0.307566        -8.3693 
  72   2.0000      -0.294813        -8.0223 
  73   2.0000      -0.287085        -7.8120 
  74   2.0000      -0.273087        -7.4311 
  75   2.0000      -0.251771        -6.8510 
  76   2.0000      -0.243960        -6.6385 
  77   2.0000      -0.243245        -6.6190 
  78   2.0000      -0.238829        -6.4989 
  79   2.0000      -0.235832        -6.4173 
  80   2.0000      -0.210454        -5.7268 
  81   2.0000      -0.201725        -5.4892 
  82   2.0000      -0.197182        -5.3656 
  83   0.0000      -0.098224        -2.6728 
  84   0.0000      -0.067129        -1.8267 
  85   0.0000      -0.043124        -1.1735 
  86   0.0000      -0.028760        -0.7826 
  87   0.0000      -0.017578        -0.4783 
  88   0.0000      -0.009139        -0.2487 
  89   0.0000       0.020641         0.5617 
  90   0.0000       0.031846         0.8666 
  91   0.0000       0.043175         1.1748 
  92   0.0000       0.045625         1.2415 
  93   0.0000       0.054166         1.4739 
  94   0.0000       0.057160         1.5554 
  95   0.0000       0.064247         1.7482 
  96   0.0000       0.066990         1.8229 
  97   0.0000       0.070624         1.9218 
  98   0.0000       0.076421         2.0795 
  99   0.0000       0.081341         2.2134 
 100   0.0000       0.086448         2.3524 
 101   0.0000       0.093445         2.5428 
 102   0.0000       0.099800         2.7157 
 103   0.0000       0.100910         2.7459 
 104   0.0000       0.105425         2.8688 
 105   0.0000       0.108698         2.9578 
 106   0.0000       0.112955         3.0737 
 107   0.0000       0.115662         3.1473 
 108   0.0000       0.126345         3.4380 
 109   0.0000       0.127535         3.4704 
 110   0.0000       0.130566         3.5529 
 111   0.0000       0.135998         3.7007 
 112   0.0000       0.139456         3.7948 
 113   0.0000       0.141532         3.8513 
 114   0.0000       0.149353         4.0641 
 115   0.0000       0.152599         4.1524 
 116   0.0000       0.172948         4.7062 
 117   0.0000       0.176957         4.8152 
 118   0.0000       0.180459         4.9105 
 119   0.0000       0.187127         5.0920 
 120   0.0000       0.190985         5.1970 
 121   0.0000       0.191465         5.2100 
 122   0.0000       0.193592         5.2679 
 123   0.0000       0.197804         5.3825 
 124   0.0000       0.201437         5.4814 
 125   0.0000       0.205772         5.5993 
 126   0.0000       0.207711         5.6521 
 127   0.0000       0.209585         5.7031 
 128   0.0000       0.210852         5.7376 
 129   0.0000       0.216617         5.8944 
 130   0.0000       0.219427         5.9709 
 131   0.0000       0.224330         6.1043 
 132   0.0000       0.225068         6.1244 
 133   0.0000       0.230839         6.2814 
 134   0.0000       0.233935         6.3657 
 135   0.0000       0.236216         6.4278 
 136   0.0000       0.249129         6.7792 
 137   0.0000       0.252028         6.8580 
 138   0.0000       0.253165         6.8890 
 139   0.0000       0.258926         7.0457 
 140   0.0000       0.260831         7.0976 
 141   0.0000       0.268487         7.3059 
 142   0.0000       0.276317         7.5190 
 143   0.0000       0.277131         7.5411 
 144   0.0000       0.284888         7.7522 
 145   0.0000       0.288885         7.8610 
 146   0.0000       0.297342         8.0911 
 147   0.0000       0.300062         8.1651 
 148   0.0000       0.303865         8.2686 
 149   0.0000       0.311859         8.4861 
 150   0.0000       0.315128         8.5751 
 151   0.0000       0.319036         8.6814 
 152   0.0000       0.326137         8.8746 
 153   0.0000       0.332016         9.0346 
 154   0.0000       0.332829         9.0567 
 155   0.0000       0.333320         9.0701 
 156   0.0000       0.336957         9.1691 
 157   0.0000       0.342357         9.3160 
 158   0.0000       0.348616         9.4863 
 159   0.0000       0.351232         9.5575 
 160   0.0000       0.356228         9.6934 
 161   0.0000       0.364527         9.9193 
 162   0.0000       0.366762         9.9801 
 163   0.0000       0.373278        10.1574 
 164   0.0000       0.379212        10.3189 
 165   0.0000       0.379887        10.3373 
 166   0.0000       0.382705        10.4139 
 167   0.0000       0.387683        10.5494 
 168   0.0000       0.391182        10.6446 
 169   0.0000       0.395497        10.7620 
 170   0.0000       0.398777        10.8513 
 171   0.0000       0.400421        10.8960 
 172   0.0000       0.406056        11.0494 
 173   0.0000       0.414353        11.2751 
 174   0.0000       0.414820        11.2878 
 175   0.0000       0.417262        11.3543 
 176   0.0000       0.422132        11.4868 
 177   0.0000       0.427246        11.6260 
 178   0.0000       0.432085        11.7576 
 179   0.0000       0.434329        11.8187 
 180   0.0000       0.436670        11.8824 
 181   0.0000       0.439932        11.9712 
 182   0.0000       0.442590        12.0435 
 183   0.0000       0.446352        12.1458 
 184   0.0000       0.454447        12.3661 
 185   0.0000       0.458389        12.4734 
 186   0.0000       0.460870        12.5409 
 187   0.0000       0.465232        12.6596 
 188   0.0000       0.467749        12.7281 
 189   0.0000       0.471782        12.8378 
 190   0.0000       0.479775        13.0553 
 191   0.0000       0.480048        13.0628 
 192   0.0000       0.490152        13.3377 
 193   0.0000       0.493395        13.4260 
 194   0.0000       0.496343        13.5062 
 195   0.0000       0.501471        13.6457 
 196   0.0000       0.503892        13.7116 
 197   0.0000       0.513154        13.9636 
 198   0.0000       0.519019        14.1232 
 199   0.0000       0.530041        14.4231 
 200   0.0000       0.532613        14.4931 
 201   0.0000       0.533757        14.5243 
 202   0.0000       0.543473        14.7887 
 203   0.0000       0.562227        15.2990 
 204   0.0000       0.564104        15.3501 
 205   0.0000       0.568093        15.4586 
 206   0.0000       0.579155        15.7596 
 207   0.0000       0.586398        15.9567 
 208   0.0000       0.591588        16.0979 
 209   0.0000       0.601708        16.3733 
 210   0.0000       0.603728        16.4283 
 211   0.0000       0.606658        16.5080 
 212   0.0000       0.616490        16.7756 
 213   0.0000       0.619799        16.8656 
 214   0.0000       0.624039        16.9810 
 215   0.0000       0.628701        17.1078 
 216   0.0000       0.631215        17.1762 
 217   0.0000       0.635287        17.2870 
 218   0.0000       0.638150        17.3650 
 219   0.0000       0.643200        17.5024 
 220   0.0000       0.652850        17.7649 
 221   0.0000       0.654520        17.8104 
 222   0.0000       0.661912        18.0115 
 223   0.0000       0.665335        18.1047 
 224   0.0000       0.668160        18.1816 
 225   0.0000       0.673147        18.3173 
 226   0.0000       0.676503        18.4086 
 227   0.0000       0.677653        18.4399 
 228   0.0000       0.683027        18.5861 
 229   0.0000       0.688087        18.7238 
 230   0.0000       0.701741        19.0953 
 231   0.0000       0.702954        19.1283 
 232   0.0000       0.707025        19.2391 
 233   0.0000       0.711313        19.3558 
 234   0.0000       0.717927        19.5358 
 235   0.0000       0.721518        19.6335 
 236   0.0000       0.728928        19.8351 
 237   0.0000       0.736514        20.0416 
 238   0.0000       0.740554        20.1515 
 239   0.0000       0.744140        20.2491 
 240   0.0000       0.754652        20.5351 
 241   0.0000       0.756118        20.5750 
 242   0.0000       0.762976        20.7616 
 243   0.0000       0.766040        20.8450 
 244   0.0000       0.775804        21.1107 
 245   0.0000       0.777172        21.1479 
 246   0.0000       0.786985        21.4150 
 247   0.0000       0.794899        21.6303 
 248   0.0000       0.801033        21.7972 
 249   0.0000       0.806635        21.9497 
 250   0.0000       0.817304        22.2400 
 251   0.0000       0.820119        22.3166 
 252   0.0000       0.825646        22.4670 
 253   0.0000       0.833549        22.6820 
 254   0.0000       0.837255        22.7829 
 255   0.0000       0.845228        22.9998 
 256   0.0000       0.845835        23.0163 
 257   0.0000       0.853446        23.2234 
 258   0.0000       0.859735        23.3946 
 259   0.0000       0.873319        23.7642 
 260   0.0000       0.877462        23.8770 
 261   0.0000       0.882058        24.0020 
 262   0.0000       0.888621        24.1806 
 263   0.0000       0.896151        24.3855 
 264   0.0000       0.903144        24.5758 
 265   0.0000       0.911804        24.8115 
 266   0.0000       0.912640        24.8342 
 267   0.0000       0.914899        24.8957 
 268   0.0000       0.927145        25.2289 
 269   0.0000       0.944908        25.7122 
 270   0.0000       0.948039        25.7975 
 271   0.0000       0.957074        26.0433 
 272   0.0000       0.962021        26.1779 
 273   0.0000       0.967005        26.3136 
 274   0.0000       0.983478        26.7618 
 275   0.0000       0.988788        26.9063 
 276   0.0000       0.994496        27.0616 
 277   0.0000       0.994630        27.0653 
 278   0.0000       0.998319        27.1656 
 279   0.0000       1.011302        27.5189 
 280   0.0000       1.014538        27.6070 
 281   0.0000       1.028602        27.9897 
 282   0.0000       1.036794        28.2126 
 283   0.0000       1.042076        28.3563 
 284   0.0000       1.057389        28.7730 
 285   0.0000       1.061586        28.8872 
 286   0.0000       1.071963        29.1696 
 287   0.0000       1.076023        29.2801 
 288   0.0000       1.089495        29.6467 
 289   0.0000       1.094987        29.7961 
 290   0.0000       1.105500        30.0822 
 291   0.0000       1.110615        30.2214 
 292   0.0000       1.124891        30.6098 
 293   0.0000       1.132945        30.8290 
 294   0.0000       1.138812        30.9887 
 295   0.0000       1.144986        31.1567 
 296   0.0000       1.162574        31.6353 
 297   0.0000       1.167477        31.7687 
 298   0.0000       1.183176        32.1959 
 299   0.0000       1.187937        32.3254 
 300   0.0000       1.194630        32.5075 
 301   0.0000       1.213178        33.0123 
 302   0.0000       1.219064        33.1724 
 303   0.0000       1.224172        33.3114 
 304   0.0000       1.229763        33.4636 
 305   0.0000       1.234377        33.5891 
 306   0.0000       1.235204        33.6116 
 307   0.0000       1.237668        33.6786 
 308   0.0000       1.252993        34.0957 
 309   0.0000       1.257290        34.2126 
 310   0.0000       1.264093        34.3977 
 311   0.0000       1.275464        34.7071 
 312   0.0000       1.284045        34.9406 
 313   0.0000       1.294928        35.2368 
 314   0.0000       1.304152        35.4878 
 315   0.0000       1.309709        35.6390 
 316   0.0000       1.321111        35.9493 
 317   0.0000       1.324262        36.0350 
 318   0.0000       1.335531        36.3417 
 319   0.0000       1.339955        36.4620 
 320   0.0000       1.350083        36.7376 
 321   0.0000       1.363890        37.1133 
 322   0.0000       1.378086        37.4996 
 323   0.0000       1.383780        37.6546 
 324   0.0000       1.392517        37.8923 
 325   0.0000       1.417105        38.5614 
 326   0.0000       1.420376        38.6504 
 327   0.0000       1.428124        38.8612 
 328   0.0000       1.431966        38.9658 
 329   0.0000       1.439539        39.1718 
 330   0.0000       1.445421        39.3319 
 331   0.0000       1.454443        39.5774 
 332   0.0000       1.458802        39.6960 
 333   0.0000       1.466357        39.9016 
 334   0.0000       1.470436        40.0126 
 335   0.0000       1.472241        40.0617 
 336   0.0000       1.478918        40.2434 
 337   0.0000       1.485535        40.4235 
 338   0.0000       1.488625        40.5075 
 339   0.0000       1.496153        40.7124 
 340   0.0000       1.503058        40.9003 
 341   0.0000       1.513178        41.1757 
 342   0.0000       1.514309        41.2064 
 343   0.0000       1.519694        41.3530 
 344   0.0000       1.523349        41.4524 
 345   0.0000       1.528870        41.6027 
 346   0.0000       1.533758        41.7357 
 347   0.0000       1.538157        41.8554 
 348   0.0000       1.555688        42.3324 
 349   0.0000       1.558717        42.4149 
 350   0.0000       1.560996        42.4769 
 351   0.0000       1.570856        42.7452 
 352   0.0000       1.576110        42.8881 
 353   0.0000       1.582172        43.0531 
 354   0.0000       1.586361        43.1671 
 355   0.0000       1.591753        43.3138 
 356   0.0000       1.613942        43.9176 
 357   0.0000       1.614583        43.9350 
 358   0.0000       1.629243        44.3340 
 359   0.0000       1.634093        44.4659 
 360   0.0000       1.641508        44.6677 
 361   0.0000       1.646304        44.7982 
 362   0.0000       1.658130        45.1200 
 363   0.0000       1.668793        45.4102 
 364   0.0000       1.671623        45.4872 
 365   0.0000       1.682882        45.7935 
 366   0.0000       1.691984        46.0412 
 367   0.0000       1.692242        46.0483 
 368   0.0000       1.696348        46.1600 
 369   0.0000       1.705592        46.4115 
 370   0.0000       1.707055        46.4513 
 371   0.0000       1.724170        46.9171 
 372   0.0000       1.730107        47.0786 
 373   0.0000       1.741259        47.3821 
 374   0.0000       1.748913        47.5903 
 375   0.0000       1.752513        47.6883 
 376   0.0000       1.765506        48.0419 
 377   0.0000       1.782712        48.5100 
 378   0.0000       1.801867        49.0313 
 379   0.0000       1.810161        49.2570 
 380   0.0000       1.814417        49.3728 
 381   0.0000       1.824808        49.6555 
 382   0.0000       1.828973        49.7689 
 383   0.0000       1.839863        50.0652 
 384   0.0000       1.846771        50.2532 
 385   0.0000       1.848247        50.2933 
 386   0.0000       1.870696        50.9042 
 387   0.0000       1.874798        51.0158 
 388   0.0000       1.884493        51.2797 
 389   0.0000       1.893985        51.5379 
 390   0.0000       1.907745        51.9124 
 391   0.0000       1.910473        51.9866 
 392   0.0000       1.921715        52.2925 
 393   0.0000       1.930573        52.5336 
 394   0.0000       1.933852        52.6228 
 395   0.0000       1.946053        52.9548 
 396   0.0000       1.961088        53.3639 
 397   0.0000       1.962525        53.4030 
 398   0.0000       1.971649        53.6513 
 399   0.0000       1.975706        53.7617 
 400   0.0000       1.982297        53.9411 
 401   0.0000       1.987039        54.0701 
 402   0.0000       1.990834        54.1734 
 403   0.0000       2.006290        54.5939 
 404   0.0000       2.016395        54.8689 
 405   0.0000       2.022312        55.0299 
 406   0.0000       2.040140        55.5150 
 407   0.0000       2.048388        55.7395 
 408   0.0000       2.057284        55.9816 
 409   0.0000       2.065311        56.2000 
 410   0.0000       2.069095        56.3029 
 411   0.0000       2.079840        56.5953 
 412   0.0000       2.082384        56.6646 
 413   0.0000       2.093536        56.9680 
 414   0.0000       2.101865        57.1947 
 415   0.0000       2.115562        57.5674 
 416   0.0000       2.120451        57.7004 
 417   0.0000       2.124548        57.8119 
 418   0.0000       2.126319        57.8601 
 419   0.0000       2.136879        58.1474 
 420   0.0000       2.143249        58.3208 
 421   0.0000       2.162814        58.8532 
 422   0.0000       2.173949        59.1562 
 423   0.0000       2.178440        59.2784 
 424   0.0000       2.181283        59.3557 
 425   0.0000       2.195078        59.7311 
 426   0.0000       2.201763        59.9130 
 427   0.0000       2.220798        60.4310 
 428   0.0000       2.227540        60.6144 
 429   0.0000       2.250663        61.2436 
 430   0.0000       2.253732        61.3272 
 431   0.0000       2.257305        61.4244 
 432   0.0000       2.258822        61.4657 
 433   0.0000       2.264024        61.6072 
 434   0.0000       2.286934        62.2306 
 435   0.0000       2.290747        62.3344 
 436   0.0000       2.306178        62.7543 
 437   0.0000       2.314715        62.9866 
 438   0.0000       2.319791        63.1247 
 439   0.0000       2.329543        63.3901 
 440   0.0000       2.339670        63.6657 
 441   0.0000       2.349975        63.9461 
 442   0.0000       2.351815        63.9961 
 443   0.0000       2.371980        64.5449 
 444   0.0000       2.378623        64.7256 
 445   0.0000       2.385726        64.9189 
 446   0.0000       2.392123        65.0930 
 447   0.0000       2.400993        65.3343 
 448   0.0000       2.410770        65.6004 
 449   0.0000       2.416441        65.7547 
 450   0.0000       2.430911        66.1484 
 451   0.0000       2.453585        66.7655 
 452   0.0000       2.463688        67.0403 
 453   0.0000       2.477035        67.4035 
 454   0.0000       2.490406        67.7674 
 455   0.0000       2.500473        68.0413 
 456   0.0000       2.508398        68.2570 
 457   0.0000       2.510793        68.3221 
 458   0.0000       2.519187        68.5506 
 459   0.0000       2.521246        68.6066 
 460   0.0000       2.528019        68.7909 
 461   0.0000       2.542332        69.1804 
 462   0.0000       2.549263        69.3690 
[...]
 15:    133.77   0.000319    1.61  0.000744  (-0.007283  0.007646 -0.025157)
 16:    146.09   0.000097    0.49  0.000208  ( 0.001239  0.012172 -0.007629)
 17:    159.02   0.001207    6.10  0.002368  (-0.007642  0.002883 -0.047972)
 18:    172.88   0.013999   70.75  0.025269  ( 0.017652 -0.037211 -0.153535)
 19:    185.19   0.006640   33.55  0.011189  (-0.001575 -0.017647 -0.104282)
 20:    206.82   0.000389    1.96  0.000586  ( 0.002525  0.001847 -0.024015)
 21:    214.90   0.000327    1.65  0.000475  ( 0.004155 -0.012128 -0.017638)
 22:    239.60   0.001663    8.40  0.002166  ( 0.016019 -0.043027 -0.007599)
 23:    265.78   0.000243    1.23  0.000285  (-0.012556  0.009535 -0.006037)
 24:    271.04   0.000285    1.44  0.000328  (-0.013169  0.000293  0.012436)
 25:    285.68   0.000045    0.23  0.000049  (-0.001015 -0.005194  0.004561)
 26:    302.10   0.004911   24.82  0.005073  (-0.064418  0.028612  0.010212)
 27:    323.68   0.004256   21.51  0.004104  ( 0.050371  0.038598 -0.008747)
 28:    369.27   0.002992   15.12  0.002528  ( 0.007212  0.048501 -0.011127)
 29:    401.55   0.000376    1.90  0.000292  ( 0.013287 -0.010720  0.000831)
 30:    414.44   0.006810   34.42  0.005128  (-0.056139  0.043450 -0.009410)
 31:    429.41   0.002793   14.11  0.002030  ( 0.006610 -0.043284  0.010610)
 32:    441.30   0.000363    1.84  0.000257  (-0.003989 -0.014121 -0.006460)
 33:    454.07   0.005542   28.01  0.003809  (-0.044703  0.034803 -0.024480)
 34:    475.01   0.000617    3.12  0.000405  (-0.011254  0.008545 -0.014333)
 35:    490.04   0.012554   63.44  0.007995  ( 0.076801  0.041384 -0.019585)
 36:    542.47   0.002154   10.89  0.001239  ( 0.011479 -0.032350 -0.007814)
 37:    552.34   0.004470   22.59  0.002525  (-0.040762  0.028828 -0.005711)
 38:    572.83   0.015209   76.86  0.008286  (-0.026660 -0.085078  0.018349)
 39:    598.13   0.014658   74.07  0.007647  ( 0.018139  0.084339 -0.014328)
 40:    629.55   0.000111    0.56  0.000055  (-0.007420  0.000285  0.000065)
 41:    650.32   0.012580   63.58  0.006037  ( 0.073023 -0.020539  0.016810)
 42:    671.27   0.001280    6.47  0.000595  ( 0.000649  0.000576 -0.024380)
 43:    685.26   0.003335   16.86  0.001519  ( 0.027351  0.002408 -0.027659)
 44:    690.63   0.003152   15.93  0.001424  (-0.018067  0.005209 -0.032721)
 45:    712.93   0.004858   24.55  0.002126  (-0.004806  0.006844 -0.045349)
 46:    746.51   0.008713   44.03  0.003642  (-0.003160 -0.000419  0.060268)
 47:    753.84   0.013206   66.74  0.005467  ( 0.071744 -0.017376 -0.004217)
 48:    773.01   0.020985  106.05  0.008472  (-0.004256 -0.001356 -0.091934)
 49:    793.20   0.005068   25.61  0.001994  (-0.011525  0.001877  0.043100)
 50:    808.12   0.001326    6.70  0.000512  (-0.003386  0.015776  0.015867)
 51:    815.33   0.004021   20.32  0.001539  (-0.004459  0.038960 -0.001072)
 52:    844.96   0.000211    1.07  0.000078  ( 0.008060  0.003214 -0.001629)
 53:    861.54   0.006461   32.65  0.002340  (-0.027801 -0.008146  0.038744)
 54:    874.63   0.003948   19.95  0.001409  ( 0.007399 -0.002326  0.036721)
 55:    878.00   0.003407   17.22  0.001211  ( 0.000335  0.034702 -0.002544)
 56:    901.58   0.000060    0.31  0.000021  (-0.001089  0.003354 -0.002914)
 57:    944.02   0.007007   35.41  0.002316  ( 0.013942 -0.043752  0.014416)
 58:    948.76   0.003574   18.06  0.001176  ( 0.023231  0.025216 -0.000347)
 59:    961.65   0.000262    1.32  0.000085  ( 0.005692 -0.003828  0.006162)
 60:    974.78   0.000624    3.15  0.000200  (-0.013817 -0.001967  0.002232)
 61:    981.88   0.000008    0.04  0.000003  ( 0.000361  0.001223  0.000981)
 62:    994.06   0.002699   13.64  0.000847  (-0.027609 -0.008295 -0.004032)
 63:   1014.63   0.016818   84.99  0.005173  (-0.059653 -0.040028  0.003453)
 64:   1017.76   0.014834   74.97  0.004548  (-0.009079 -0.065984 -0.010588)
 65:   1053.94   0.005982   30.23  0.001771  ( 0.038102 -0.014250  0.010790)
 66:   1084.40   0.005267   26.62  0.001516  (-0.036093 -0.013839 -0.004626)
 67:   1097.09   0.070455  356.05  0.020041  (-0.140275  0.004717  0.018475)
 68:   1108.18   0.002111   10.67  0.000594  ( 0.000920  0.024356  0.000567)
 69:   1121.93   0.001462    7.39  0.000407  (-0.011408 -0.012119 -0.011387)
 70:   1148.82   0.000317    1.60  0.000086  (-0.000068  0.000728 -0.009251)
 71:   1149.52   0.000201    1.02  0.000055  ( 0.002381 -0.000210 -0.006995)
 72:   1157.55   0.002258   11.41  0.000609  (-0.023493 -0.007221 -0.002192)
 73:   1171.77   0.019192   96.99  0.005111  (-0.070410 -0.011513  0.004583)
 74:   1186.51   0.001721    8.70  0.000453  ( 0.005066 -0.017697 -0.010671)
 75:   1188.75   0.019436   98.22  0.005102  ( 0.070647 -0.005271 -0.009135)
 76:   1210.51   0.025920  130.99  0.006682  ( 0.052308  0.060104  0.018259)
 77:   1232.98   0.021127  106.77  0.005347  ( 0.030564 -0.065644 -0.010203)
 78:   1255.43   0.169843  858.32  0.042218  ( 0.202009  0.029111 -0.023727)
 79:   1275.26   0.071505  361.36  0.017498  ( 0.055261 -0.119714  0.010612)
 80:   1306.12   0.012608   63.72  0.003012  (-0.053809 -0.010522  0.002500)
 81:   1310.72   0.011143   56.31  0.002653  (-0.036605  0.035532 -0.007104)
 82:   1342.31   0.008997   45.47  0.002092  (-0.006779  0.044646 -0.007250)
 83:   1354.56   0.013198   66.70  0.003040  (-0.011030 -0.053967 -0.002526)
 84:   1394.21   0.098492  497.74  0.022045  ( 0.147478 -0.008231  0.015094)
 85:   1413.69   0.058278  294.51  0.012864  ( 0.112871 -0.004286 -0.010303)
 86:   1438.95   0.097673  493.60  0.021182  (-0.144123 -0.017502 -0.010228)
 87:   1447.62   0.009411   47.56  0.002029  ( 0.040795  0.019068 -0.000985)
 88:   1457.93   0.017059   86.21  0.003651  ( 0.059760 -0.008638  0.002378)
 89:   1466.52   0.002202   11.13  0.000469  ( 0.002919 -0.002927  0.021247)
 90:   1475.00   0.002116   10.70  0.000448  (-0.005560  0.005739 -0.019594)
 91:   1476.00   0.002486   12.57  0.000526  ( 0.017414 -0.013751 -0.005775)
 92:   1482.77   0.017469   88.28  0.003677  ( 0.051878 -0.029662 -0.010267)
 93:   1491.28   0.048341  244.30  0.010116  ( 0.096302  0.029014  0.000219)
 94:   1501.60   0.053362  269.67  0.011090  (-0.093685  0.043117 -0.021303)
 95:   1513.33   0.138665  700.76  0.028594  (-0.166043 -0.031578 -0.005160)
 96:   1532.45   0.143084  723.09  0.029137  ( 0.011253 -0.167090  0.033035)
 97:   1574.74   0.029448  148.82  0.005836  (-0.002158  0.075526 -0.011262)
 98:   1594.01   0.003222   16.28  0.000631  (-0.001653 -0.020957  0.013742)
 99:   1598.15   0.012428   62.80  0.002427  (-0.006466 -0.047854 -0.009742)
100:   1611.29   0.006489   32.79  0.001257  (-0.029452 -0.019692  0.001214)
101:   1674.11   0.098561  498.09  0.018372  ( 0.030325  0.131542  0.012223)
102:   2985.97   0.010279   51.94  0.001074  ( 0.026669  0.017136  0.008327)
103:   3024.45   0.007433   37.56  0.000767  (-0.026037 -0.009085  0.002538)
104:   3048.17   0.009370   47.35  0.000959  ( 0.007920  0.001737 -0.029892)
105:   3099.89   0.005172   26.14  0.000521  (-0.003670  0.002352 -0.022397)
106:   3113.95   0.005138   25.96  0.000515  (-0.008055  0.021196 -0.000827)
107:   3135.01   0.003733   18.86  0.000372  ( 0.011636 -0.014964 -0.003501)
108:   3136.58   0.002837   14.34  0.000282  ( 0.013309  0.009616  0.003554)
109:   3150.42   0.000962    4.86  0.000095  ( 0.009540 -0.000013 -0.002072)
110:   3155.76   0.003381   17.09  0.000334  ( 0.015804 -0.008539  0.003410)
111:   3158.99   0.000254    1.28  0.000025  ( 0.000211 -0.004810 -0.001376)
112:   3165.85   0.001320    6.67  0.000130  ( 0.006607 -0.008673 -0.003360)
113:   3168.66   0.002892   14.61  0.000285  ( 0.014420  0.007807  0.003992)
114:   3174.11   0.001825    9.22  0.000179  (-0.010077  0.008527  0.002278)
115:   3181.13   0.000051    0.26  0.000005  (-0.001137  0.000214  0.001924)
116:   3191.66   0.001303    6.58  0.000127  (-0.001458  0.011119 -0.001283)

* The epsilon (eps) is given for a Dirac delta lineshape.
** The dipole moment derivative (T) already includes vibrational overlap.

The first frequency considered to be a vibration is 6
The total number of vibrations considered is 111


--------------------------
THERMOCHEMISTRY AT 298.15K
--------------------------

Temperature         ... 298.15 K
Pressure            ... 1.00 atm
Total Mass          ... 318.25 AMU

Throughout the following assumptions are being made:
  (1) The electronic state is orbitally nondegenerate
  (2) There are no thermally accessible electronically excited states
  (3) Hindered rotations indicated by low frequency modes are not
      treated as such but are treated as vibrations and this may
      cause some error
  (4) All equations used are the standard statistical mechanics
      equations for an ideal gas
  (5) All vibrations are strictly harmonic

freq.      15.34  E(vib)   ...       0.57 
freq.      19.03  E(vib)   ...       0.57 
freq.      34.34  E(vib)   ...       0.54 
freq.      46.62  E(vib)   ...       0.53 
freq.      50.39  E(vib)   ...       0.52 
freq.      72.80  E(vib)   ...       0.49 
freq.      89.94  E(vib)   ...       0.47 
freq.     101.36  E(vib)   ...       0.46 
freq.     106.44  E(vib)   ...       0.45 
freq.     133.77  E(vib)   ...       0.42 
freq.     146.09  E(vib)   ...       0.41 
freq.     159.02  E(vib)   ...       0.39 
freq.     172.88  E(vib)   ...       0.38 
freq.     185.19  E(vib)   ...       0.37 
freq.     206.82  E(vib)   ...       0.35 
freq.     214.90  E(vib)   ...       0.34 
freq.     239.60  E(vib)   ...       0.31 
freq.     265.78  E(vib)   ...       0.29 
freq.     271.04  E(vib)   ...       0.29 
freq.     285.68  E(vib)   ...       0.28 
freq.     302.10  E(vib)   ...       0.26 
freq.     323.68  E(vib)   ...       0.25 
freq.     369.27  E(vib)   ...       0.21 
freq.     401.55  E(vib)   ...       0.19 
freq.     414.44  E(vib)   ...       0.19 
freq.     429.41  E(vib)   ...       0.18 
freq.     441.30  E(vib)   ...       0.17 
freq.     454.07  E(vib)   ...       0.16 
freq.     475.01  E(vib)   ...       0.15 
freq.     490.04  E(vib)   ...       0.15 
freq.     542.47  E(vib)   ...       0.12 
freq.     552.34  E(vib)   ...       0.12 
freq.     572.83  E(vib)   ...       0.11 
freq.     598.13  E(vib)   ...       0.10 
freq.     629.55  E(vib)   ...       0.09 
freq.     650.32  E(vib)   ...       0.08 
freq.     671.27  E(vib)   ...       0.08 
freq.     685.26  E(vib)   ...       0.07 
freq.     690.63  E(vib)   ...       0.07 
freq.     712.93  E(vib)   ...       0.07 
freq.     746.51  E(vib)   ...       0.06 
freq.     753.84  E(vib)   ...       0.06 
freq.     773.01  E(vib)   ...       0.05 
freq.     793.20  E(vib)   ...       0.05 
freq.     808.12  E(vib)   ...       0.05 
freq.     815.33  E(vib)   ...       0.05 
freq.     844.96  E(vib)   ...       0.04 
freq.     861.54  E(vib)   ...       0.04 
freq.     874.63  E(vib)   ...       0.04 
freq.     878.00  E(vib)   ...       0.04 
freq.     901.58  E(vib)   ...       0.03 
freq.     944.02  E(vib)   ...       0.03 
freq.     948.76  E(vib)   ...       0.03 
freq.     961.65  E(vib)   ...       0.03 
freq.     974.78  E(vib)   ...       0.03 
freq.     981.88  E(vib)   ...       0.02 
freq.     994.06  E(vib)   ...       0.02 
freq.    1014.63  E(vib)   ...       0.02 
freq.    1017.76  E(vib)   ...       0.02 
freq.    1053.94  E(vib)   ...       0.02 
freq.    1084.40  E(vib)   ...       0.02 
freq.    1097.09  E(vib)   ...       0.02 
freq.    1108.18  E(vib)   ...       0.02 
freq.    1121.93  E(vib)   ...       0.01 
freq.    1148.82  E(vib)   ...       0.01 
freq.    1149.52  E(vib)   ...       0.01 
freq.    1157.55  E(vib)   ...       0.01 
freq.    1171.77  E(vib)   ...       0.01 
freq.    1186.51  E(vib)   ...       0.01 
freq.    1188.75  E(vib)   ...       0.01 
freq.    1210.51  E(vib)   ...       0.01 
freq.    1232.98  E(vib)   ...       0.01 
freq.    1255.43  E(vib)   ...       0.01 
freq.    1275.26  E(vib)   ...       0.01 
freq.    1306.12  E(vib)   ...       0.01 
freq.    1310.72  E(vib)   ...       0.01 
freq.    1342.31  E(vib)   ...       0.01 
freq.    1354.56  E(vib)   ...       0.01 
freq.    1394.21  E(vib)   ...       0.00 
freq.    1413.69  E(vib)   ...       0.00 
freq.    1438.95  E(vib)   ...       0.00 
freq.    1447.62  E(vib)   ...       0.00 
freq.    1457.93  E(vib)   ...       0.00 
freq.    1466.52  E(vib)   ...       0.00 
freq.    1475.00  E(vib)   ...       0.00 
freq.    1476.00  E(vib)   ...       0.00 
freq.    1482.77  E(vib)   ...       0.00 
freq.    1491.28  E(vib)   ...       0.00 
freq.    1501.60  E(vib)   ...       0.00 
freq.    1513.33  E(vib)   ...       0.00 
freq.    1532.45  E(vib)   ...       0.00 
freq.    1574.74  E(vib)   ...       0.00 
freq.    1594.01  E(vib)   ...       0.00 
freq.    1598.15  E(vib)   ...       0.00 
freq.    1611.29  E(vib)   ...       0.00 
freq.    1674.11  E(vib)   ...       0.00 
freq.    2985.97  E(vib)   ...       0.00 
freq.    3024.45  E(vib)   ...       0.00 
freq.    3048.17  E(vib)   ...       0.00 
freq.    3099.89  E(vib)   ...       0.00 
freq.    3113.95  E(vib)   ...       0.00 
freq.    3135.01  E(vib)   ...       0.00 
freq.    3136.58  E(vib)   ...       0.00 
freq.    3150.42  E(vib)   ...       0.00 
freq.    3155.76  E(vib)   ...       0.00 
freq.    3158.99  E(vib)   ...       0.00 
freq.    3165.85  E(vib)   ...       0.00 
freq.    3168.66  E(vib)   ...       0.00 
freq.    3174.11  E(vib)   ...       0.00 
freq.    3181.13  E(vib)   ...       0.00 
freq.    3191.66  E(vib)   ...       0.00 

------------
INNER ENERGY
------------

The inner energy is: U= E(el) + E(ZPE) + E(vib) + E(rot) + E(trans)
    E(el)   - is the total energy from the electronic structure calculation
              = E(kin-el) + E(nuc-el) + E(el-el) + E(nuc-nuc)
    E(ZPE)  - the the zero temperature vibrational energy from the frequency calculation
    E(vib)  - the the finite temperature correction to E(ZPE) due to population
              of excited vibrational states
    E(rot)  - is the rotational thermal energy
    E(trans)- is the translational thermal energy

Summary of contributions to the inner energy U:
Electronic energy                ...  -1079.35230963 Eh
Zero point energy                ...      0.28910521 Eh     181.42 kcal/mol
Thermal vibrational correction   ...      0.01950323 Eh      12.24 kcal/mol
Thermal rotational correction    ...      0.00141627 Eh       0.89 kcal/mol
Thermal translational correction ...      0.00141627 Eh       0.89 kcal/mol
-----------------------------------------------------------------------
Total thermal energy                  -1079.04086865 Eh


Summary of corrections to the electronic energy:
(perhaps to be used in another calculation)
Total thermal correction                  0.02233577 Eh      14.02 kcal/mol
Non-thermal (ZPE) correction              0.28910521 Eh     181.42 kcal/mol
-----------------------------------------------------------------------
Total correction                          0.31144097 Eh     195.43 kcal/mol


--------
ENTHALPY
--------

The enthalpy is H = U + kB*T
                kB is Boltzmann's constant
Total free energy                 ...  -1079.04086865 Eh 
Thermal Enthalpy correction       ...      0.00094421 Eh       0.59 kcal/mol
-----------------------------------------------------------------------
Total Enthalpy                    ...  -1079.03992444 Eh


Note: Only C1 symmetry has been detected, increase convergence thresholds 
      if your molecule has a higher symmetry. Symmetry factor of 1.0 is   
      used for the rotational entropy correction. 
 

Note: Rotational entropy computed according to Herzberg 
Infrared and Raman Spectra, Chapter V,1, Van Nostrand Reinhold, 1945 
Point Group:  C1, Symmetry Number:   1  
Rotational constants in cm-1:     0.015307     0.003114     0.002619 

Vibrational entropy computed according to the QRRHO of S. Grimme
Chem.Eur.J. 2012 18 9955


-------
ENTROPY
-------

The entropy contributions are T*S = T*(S(el)+S(vib)+S(rot)+S(trans))
     S(el)   - electronic entropy
     S(vib)  - vibrational entropy
     S(rot)  - rotational entropy
     S(trans)- translational entropy
The entropies will be listed as multiplied by the temperature to get
units of energy

Electronic entropy                ...      0.00000000 Eh      0.00 kcal/mol
Vibrational entropy               ...      0.03528464 Eh     22.14 kcal/mol
Rotational entropy                ...      0.01701521 Eh     10.68 kcal/mol
Translational entropy             ...      0.02051083 Eh     12.87 kcal/mol
-----------------------------------------------------------------------
Final entropy term                ...      0.07281068 Eh     45.69 kcal/mol

In case the symmetry of your molecule has not been determined correctly
or in case you have a reason to use a different symmetry number we print 
out the resulting rotational entropy values for sn=1,12 :
 --------------------------------------------------------
|  sn= 1 | S(rot)=       0.01701521 Eh     10.68 kcal/mol|
|  sn= 2 | S(rot)=       0.01636076 Eh     10.27 kcal/mol|
|  sn= 3 | S(rot)=       0.01597792 Eh     10.03 kcal/mol|
|  sn= 4 | S(rot)=       0.01570630 Eh      9.86 kcal/mol|
|  sn= 5 | S(rot)=       0.01549561 Eh      9.72 kcal/mol|
|  sn= 6 | S(rot)=       0.01532347 Eh      9.62 kcal/mol|
|  sn= 7 | S(rot)=       0.01517792 Eh      9.52 kcal/mol|
|  sn= 8 | S(rot)=       0.01505184 Eh      9.45 kcal/mol|
|  sn= 9 | S(rot)=       0.01494064 Eh      9.38 kcal/mol|
|  sn=10 | S(rot)=       0.01484116 Eh      9.31 kcal/mol|
|  sn=11 | S(rot)=       0.01475117 Eh      9.26 kcal/mol|
|  sn=12 | S(rot)=       0.01466901 Eh      9.20 kcal/mol|
 --------------------------------------------------------


-------------------
GIBBS FREE ENERGY
-------------------

The Gibbs free energy is G = H - T*S

Total enthalpy                    ...  -1079.03992444 Eh 
Total entropy correction          ...     -0.07281068 Eh    -45.69 kcal/mol
-----------------------------------------------------------------------
Final Gibbs free energy         ...  -1079.11273513 Eh

For completeness - the Gibbs free energy minus the electronic energy
G-E(el)                           ...      0.23957450 Eh    150.33 kcal/mol



Timings for individual modules:

Sum of individual times         ...    49739.456 sec (= 828.991 min)
GTO integral calculation        ...       41.878 sec (=   0.698 min)   0.1 %
SCF iterations                  ...     3216.878 sec (=  53.615 min)   6.5 %
SCF Gradient evaluation         ...      973.303 sec (=  16.222 min)   2.0 %
Geometry relaxation             ...        3.221 sec (=   0.054 min)   0.0 %
Numerical frequency calculation ...    45504.176 sec (= 758.403 min)  91.5 %
                             ****ORCA TERMINATED NORMALLY****
TOTAL RUN TIME: 0 days 13 hours 47 minutes 0 seconds 441 msec
‘Aldol_Cry-Li_freqopt.cpcm’ -> ‘/home/rothe/Calc/Li_Path/THF/Aldol-Li_Cry/Aldol_Cry-Li_freqopt.cpcm’
‘Aldol_Cry-Li_freqopt.densities’ -> ‘/home/rothe/Calc/Li_Path/THF/Aldol-Li_Cry/Aldol_Cry-Li_freqopt.densities’
‘Aldol_Cry-Li_freqopt.engrad’ -> ‘/home/rothe/Calc/Li_Path/THF/Aldol-Li_Cry/Aldol_Cry-Li_freqopt.engrad’
‘Aldol_Cry-Li_freqopt.gbw’ -> ‘/home/rothe/Calc/Li_Path/THF/Aldol-Li_Cry/Aldol_Cry-Li_freqopt.gbw’
‘Aldol_Cry-Li_freqopt.hess’ -> ‘/home/rothe/Calc/Li_Path/THF/Aldol-Li_Cry/Aldol_Cry-Li_freqopt.hess’
‘Aldol_Cry-Li_freqopt.job’ -> ‘/home/rothe/Calc/Li_Path/THF/Aldol-Li_Cry/Aldol_Cry-Li_freqopt.job’
‘Aldol_Cry-Li_freqopt.opt’ -> ‘/home/rothe/Calc/Li_Path/THF/Aldol-Li_Cry/Aldol_Cry-Li_freqopt.opt’
‘Aldol_Cry-Li_freqopt_property.txt’ -> ‘/home/rothe/Calc/Li_Path/THF/Aldol-Li_Cry/Aldol_Cry-Li_freqopt_property.txt’
‘Aldol_Cry-Li_freqopt_trj.xyz’ -> ‘/home/rothe/Calc/Li_Path/THF/Aldol-Li_Cry/Aldol_Cry-Li_freqopt_trj.xyz’
‘Aldol_Cry-Li_freqopt.xyz’ -> ‘/home/rothe/Calc/Li_Path/THF/Aldol-Li_Cry/Aldol_Cry-Li_freqopt.xyz’
