58
 energy: -94.886941567283 gnorm: 0.098773847919 xtb: 6.4.1 (afa7bdf)
C        -0.48220425390000    0.67261002480000    0.18396853350000
C        -0.57252899570000   -0.65967429770000   -0.22180943540000
C         0.57692454040000   -1.45037693240000   -0.29901134740000
C         1.82462724550000   -0.91226039800000    0.01949448000000
C         1.92366302230000    0.42296629640000    0.42272125950000
C         0.76728723080000    1.20681612040000    0.51198417630000
O        -1.52616310310000    1.54882201580000    0.29379719420000
C        -2.82900355980000    1.03558405120000    0.04526770050000
H        -2.92757164060000    0.69105887370000   -0.98950335110000
H        -3.54372946410000    1.85073218010000    0.19332916400000
H        -3.08009895160000    0.23858032640000    0.75305723390000
H        -1.52296023500000   -1.11535002130000   -0.48048647540000
H         0.83630251960000    2.24351772900000    0.83731702760000
H         0.49566426900000   -2.49216424240000   -0.60140715690000
H         2.69288862420000   -1.56148549430000   -0.02667412470000
C         3.23001854280000    1.04309144290000    0.78303898070000
C         4.45270597380000    0.64161546830000   -0.03258790090000
O         3.25889807200000    1.87634819650000    1.68252652890000
C         5.79835090160000    1.24497596970000    0.45474152710000
H         4.27469428050000    0.88666660830000   -1.08632408350000
H         4.52335920220000   -0.44746925280000    0.05442069230000
C         6.94102412470000    0.34062256190000   -0.10211460730000
C         6.04108067130000    2.72655352280000    0.11496912310000
H         5.78967885000000    1.18894526990000    1.55148691680000
C         5.05591591840000    3.56487993320000   -0.43011572420000
C         7.28175675140000    3.31723397350000    0.42260529590000
C         7.54086861840000    4.67003712730000    0.17370583210000
C         5.30393898530000    4.92562636990000   -0.66785078840000
H         4.05781178840000    3.20060333240000   -0.65434740070000
C         6.54875010830000    5.48619503190000   -0.36945898680000
H         4.50666714770000    5.54905822970000   -1.06917261310000
H         8.07414407760000    2.74213310460000    0.89368135290000
H         8.51843027910000    5.06930475050000    0.43205641500000
C         6.76155733280000    6.93710196170000   -0.62530303610000
O         5.92921225110000    7.66327182230000   -1.14515327780000
O         7.99272566550000    7.31970556540000   -0.20020081960000
C         8.27335576810000    8.70684393170000   -0.38877981930000
H         9.26163032410000    8.91164880790000    0.03269226480000
H         7.53932582620000    9.32526775340000    0.13720891320000
H         8.29428847980000    8.94948161140000   -1.45557461420000
C         8.07399665960000    0.09580354290000    0.88531836890000
H         7.36062640690000    0.76654755470000   -1.02186247440000
H         6.54710716040000   -0.65044035590000   -0.35317979890000
C         9.21596351500000   -0.71827474880000    0.41728596060000
O         8.11074568980000    0.54235277190000    2.02651764090000
C         9.01945947090000   -2.01034262030000   -0.07266664850000
C        10.50403094170000   -0.18625231680000    0.52035192530000
C        11.60839828600000   -0.93999183520000    0.11858769750000
C        11.41295486980000   -2.23209979040000   -0.37482945390000
C        10.12285550620000   -2.76649792670000   -0.46596733320000
H        10.65133304060000    0.81464410260000    0.92041867280000
H         8.02733036650000   -2.44922391380000   -0.12111503490000
H         9.98352102650000   -3.78026894500000   -0.83457908630000
H        12.24473499520000   -2.85269432950000   -0.69274610610000
O        12.81170608320000   -0.30453319860000    0.25069868000000
C        13.97916695650000   -1.07758493160000    0.00217987580000
H        14.03617353580000   -1.93441739980000    0.68175962760000
H        14.84843500820000   -0.44111460130000    0.19359234220000
58
 energy: -94.901094419907 gnorm: 0.049383394794 xtb: 6.4.1 (afa7bdf)
C        -0.47447735848662    0.67054875426713    0.18460481716712
C        -0.56481282931243   -0.65830852586402   -0.21927045903141
C         0.58184190550644   -1.43780873957657   -0.29200627271064
C         1.82514935056143   -0.90470812009474    0.01033327513090
C         1.93124908846902    0.42868946470507    0.41033999580967
C         0.77569311130440    1.20073161902829    0.50954091082302
O        -1.52494335171595    1.53457619309991    0.29391395287749
C        -2.82745129119832    1.03296349256088    0.04488083912429
H        -2.92454875644883    0.68324241264116   -0.98677380784611
H        -3.51773758513508    1.86417509099590    0.20029890607391
H        -3.07730759659859    0.23066290434767    0.74481542121685
H        -1.51327843010288   -1.10824617363911   -0.47492039475601
H         0.84213581613577    2.23063256832087    0.83274248911343
H         0.49916839646137   -2.47281413467322   -0.59460562603597
H         2.69015528538917   -1.54943097202997   -0.03216792808394
C         3.22923599133777    1.06977335149114    0.77493098878875
C         4.44895825710338    0.65930462709815   -0.02748736045981
O         3.27489020879851    1.88154497136339    1.68125480402214
C         5.79596590899575    1.25045618425298    0.44768956565314
H         4.26876301435387    0.89577861764967   -1.07844211011863
H         4.51135128356300   -0.42860385018896    0.05335880624313
C         6.94533859148602    0.35661766165154   -0.08773587499021
C         6.03267163867224    2.72455963384874    0.11758827879476
H         5.80551642580833    1.18788145440689    1.54349204397512
C         5.05656664012877    3.55783182300311   -0.42776213603575
C         7.26896331676804    3.30710801129722    0.41968201278410
C         7.52887474733248    4.64841619529996    0.17885049714332
C         5.30332565813252    4.90555349590711   -0.66240459831082
H         4.06876274803011    3.18675243061698   -0.65746101377159
C         6.54388335169787    5.46788368071531   -0.36695719916007
H         4.51996248944906    5.53242965864003   -1.06837007838970
H         8.05260923889017    2.72423346134780    0.88211290806779
H         8.49955896285253    5.05308623152461    0.43017102934057
C         6.76422778342696    6.91562492318306   -0.61950084465259
O         5.94518961275845    7.64635439204253   -1.13395746561809
O         7.97963271888406    7.32374570896987   -0.20396699428793
C         8.27272307960824    8.70698970090353   -0.38980038486398
H         9.26028479737885    8.88633117718067    0.03738242413088
H         7.53109526953927    9.32282146879583    0.12328658163474
H         8.27987047658381    8.95125686883960   -1.45422065200831
C         8.07425167128608    0.11721989626876    0.89221627652471
H         7.36848685500045    0.77797395599683   -1.00241060806381
H         6.56038172102328   -0.63262046827497   -0.34919367077509
C         9.21142137813544   -0.71079729485231    0.40775071830923
O         8.09174447741717    0.55913252480601    2.02529301713761
C         9.02615296220818   -2.00342598805140   -0.08043748165421
C        10.49571734265749   -0.19081001942076    0.51697914077539
C        11.60153740749675   -0.94475099508098    0.11855562563101
C        11.41090579397832   -2.23706970740175   -0.36576749541418
C        10.12810353734181   -2.75897275605575   -0.45482735228916
H        10.64687718532657    0.80365431528826    0.91355423965393
H         8.03855133069839   -2.43858787735025   -0.13012814562043
H         9.98983985332194   -3.76330326599558   -0.83046015516552
H        12.24637859591389   -2.83821903194933   -0.69525653294287
O        12.80564641882566   -0.31767930236519    0.22684245767552
C        13.97454069238417   -1.05961717509674    0.07698463611226
H        14.01401315795736   -1.99296721324936    0.64906821720427
H        14.84821836051811   -0.41306692674542    0.16573767101778
58
 energy: -94.905531700861 gnorm: 0.019242560460 xtb: 6.4.1 (afa7bdf)
C        -0.46169172231986    0.67478037160253    0.18351459814429
C        -0.55256303261107   -0.65373998297646   -0.21781959199734
C         0.59541834471751   -1.42405298221610   -0.29178460470840
C         1.83623093403643   -0.89477757798357    0.00226249677238
C         1.94588538071503    0.43877821070803    0.39980260958618
C         0.79009260074136    1.20404544206810    0.50155460947962
O        -1.51754725902397    1.52651619752865    0.29635005173407
C        -2.81915748537461    1.03135272514472    0.04563558569339
H        -2.91986950715047    0.68085908776011   -0.98513954333251
H        -3.48845338060478    1.87499606813438    0.20807000471716
H        -3.07400282779342    0.22435621957103    0.73807670946988
H        -1.50180559459570   -1.09978853733977   -0.46576151886032
H         0.85235344950848    2.22922192582222    0.82813661540391
H         0.51124087389042   -2.45774702257464   -0.58764525991295
H         2.70150967953423   -1.53430006976840   -0.04241485750596
C         3.23925821701999    1.08469370182047    0.78150423836612
C         4.45114146549906    0.67113281121139   -0.02563758839678
O         3.29103292538230    1.89670162610405    1.68018431630067
C         5.79479776178813    1.25264780229399    0.44887548051452
H         4.26766324317295    0.90246202823144   -1.07634579779778
H         4.50554808326805   -0.41632371737650    0.05243123599616
C         6.94915370244713    0.37205466672206   -0.08283872305103
C         6.02383284475677    2.71740289138121    0.12045445743857
H         5.81366287638068    1.18601243908588    1.54535660492339
C         5.05235888200352    3.54559375544608   -0.43022878117724
C         7.25911032406587    3.29247950986966    0.42117186091109
C         7.52029335438978    4.62612982936328    0.18520471440689
C         5.29970116032154    4.88546788972170   -0.66283043925219
H         4.07187067914192    3.16602144149592   -0.66430843124561
C         6.53793232262483    5.44764425768204   -0.36312091541261
H         4.52870089824929    5.51872473263898   -1.07433182103100
H         8.03397195924228    2.69846656221364    0.87667688253526
H         8.48492167213452    5.03947021856649    0.43225096667330
C         6.76160093897082    6.89103859020396   -0.61193002356294
O         5.95198495371259    7.63047455311886   -1.12715785139190
O         7.96567426187516    7.31497852493061   -0.20469082517563
C         8.26493237417878    8.69638547777620   -0.39177237886788
H         9.25117098637187    8.85188797243134    0.03941454605250
H         7.52084690978597    9.31519391139949    0.11279926445880
H         8.26503106377270    8.94339136955084   -1.45499188254848
C         8.06760155443581    0.13371073112776    0.90426215194557
H         7.38038726482584    0.79515502472869   -0.99153365307900
H         6.57205841645440   -0.61633982265046   -0.35513834858471
C         9.20520871654523   -0.70112111896960    0.40817268164816
O         8.07371382078158    0.58050370407716    2.02985134476668
C         9.02598586837071   -1.99404033355432   -0.08271216491209
C        10.48866919982450   -0.18893686540493    0.52083005899510
C        11.59592911725037   -0.94290873809341    0.12184210388292
C        11.40674945915471   -2.23541039599522   -0.36371778473960
C        10.12634669020249   -2.74685839971731   -0.45342170431871
H        10.64615677129725    0.80226298631490    0.91357823362280
H         8.03958055584097   -2.42355140000275   -0.14172627436535
H         9.98746581739713   -3.74918405908020   -0.82538473748894
H        12.24884276904373   -2.82367907079681   -0.69125781697633
O        12.80472430244745   -0.33188239797327    0.21561414902625
C        13.95631604553841   -1.04271667463994    0.11700903809190
H        13.98864885654085   -2.02428335517584    0.59585100462843
H        14.82360716772236   -0.40662235115817    0.16686460840731
58
 energy: -94.906638954169 gnorm: 0.011931490439 xtb: 6.4.1 (afa7bdf)
C        -0.45071132485681    0.68132474665598    0.18439932587957
C        -0.53952383867121   -0.64851297468231   -0.21600734878158
C         0.61148318826704   -1.41479891296143   -0.29415190119711
C         1.85138203801913   -0.88309721215057   -0.00281752090266
C         1.95632904811926    0.44985487299940    0.39976753947696
C         0.79981915573743    1.21243278328551    0.50238250656061
O        -1.50830068843070    1.52748538000134    0.30149561456455
C        -2.80923507617471    1.03422454538289    0.04758481823682
H        -2.91144046450947    0.68705210700172   -0.98457308341648
H        -3.47210474483744    1.88076892045118    0.21382889891679
H        -3.06837273854179    0.22422774186658    0.73562678916270
H        -1.48973842689102   -1.09514179461444   -0.45786977169988
H         0.86002827981731    2.23857745341943    0.82755994450627
H         0.52903247330395   -2.44947953585610   -0.58851247514259
H         2.72005226198579   -1.51793026273269   -0.05363582269180
C         3.24758213253403    1.09984384657529    0.77839812156646
C         4.45469195185297    0.67035808869502   -0.02718095211643
O         3.30535731096650    1.90799929964852    1.68027325404710
C         5.79461839570052    1.24817169111470    0.44991062607126
H         4.27338275429369    0.90525233157543   -1.07762157184840
H         4.49996920781522   -0.41768521865327    0.05022202387979
C         6.95348082124634    0.37775709958171   -0.08332606119532
C         6.01749511889489    2.70992072573038    0.12364729085347
H         5.81305769030591    1.17862998341873    1.54658670485091
C         5.04565729915988    3.53328893315563   -0.43446670808930
C         7.25348716196027    3.28240087293791    0.42703822131208
C         7.51487000493372    4.61465413247891    0.19152587905782
C         5.29393084558304    4.87220566264541   -0.66795340040440
H         4.06879163980134    3.14701301821350   -0.67412418292686
C         6.53110408344605    5.43358641096274   -0.36047216401137
H         4.52906319749594    5.50849914159204   -1.08669687574420
H         8.02340228243793    2.68181806508921    0.88181020420262
H         8.47699652593005    5.03385455433062    0.43845364219782
C         6.75468127885819    6.87295898396870   -0.60967684920899
O         5.94594116247826    7.61616410119487   -1.12678383123092
O         7.95568509268728    7.29933472463653   -0.20230739795628
C         8.25520836992867    8.68028934339798   -0.39196077089440
H         9.24080822830304    8.82775958590602    0.04000306266769
H         7.51119455541316    9.30154316688219    0.11037759634326
H         8.25447999473649    8.92623407462419   -1.45568094261153
C         8.06435338652924    0.14175407737281    0.91303406922286
H         7.39171623185906    0.81374327727804   -0.98321060951114
H         6.58425246696272   -0.61004190793211   -0.36892865735348
C         9.20119137436089   -0.69445931660063    0.41555334467331
O         8.06395061863816    0.58878362926086    2.03848261249907
C         9.01882057730159   -1.98520005850369   -0.08263129895679
C        10.48378974855067   -0.18185997570681    0.52309885104036
C        11.58912602638920   -0.93569800388900    0.11728637200141
C        11.39900861385253   -2.23315716349403   -0.36255609599332
C        10.11760103154042   -2.74057503555739   -0.45322108251150
H        10.64605152035477    0.80878000361754    0.91631862719598
H         8.03071951845264   -2.41004498462643   -0.14821820975889
H         9.97524109225168   -3.74168782871459   -0.82859892790623
H        12.24404605847809   -2.81639333617282   -0.69081289042227
O        12.79940705777743   -0.33082836785192    0.20029873015842
C        13.94565189593976   -1.03630715157834    0.14563398625764
H        13.97681950635798   -2.03303330827681    0.57395463424702
H        14.81644373320283   -0.40788464199368    0.16740401773352
58
 energy: -94.907264587197 gnorm: 0.011746083871 xtb: 6.4.1 (afa7bdf)
C        -0.43881331327263    0.68978930324941    0.18822489626885
C        -0.52536643117465   -0.64093226740180   -0.21277152198939
C         0.62745312190608   -1.40511184374450   -0.29778086391451
C         1.86667731804735   -0.87036270236123   -0.00854141468388
C         1.96698287176013    0.46145126156259    0.39921080834836
C         0.81086605520815    1.22414649150886    0.50312146800451
O        -1.49654949090557    1.53322108770141    0.30947513818129
C        -2.79699287948782    1.04157266922645    0.05090386447007
H        -2.89786817131980    0.69921366895966   -0.98337121842427
H        -3.45911430634601    1.88758414799252    0.22003970372047
H        -3.05909369904506    0.22847696191764    0.73471246437435
H        -1.47620586001063   -1.08864979344448   -0.45071400060839
H         0.87055393082567    2.25090404566348    0.82982537695868
H         0.54773211578492   -2.43990364354186   -0.59512455619739
H         2.73795686950771   -1.50196777834092   -0.06458868608961
C         3.25874902048388    1.10251393068578    0.78090455992308
C         4.46029913192011    0.66486190682361   -0.02806828290777
O         3.31936515719795    1.91929998457790    1.67537825876138
C         5.79586442823492    1.24250666155835    0.45083131653902
H         4.27985201829422    0.90045774418575   -1.07907155642134
H         4.50202729459340   -0.42243511172287    0.05235445216973
C         6.95961830956050    0.38197074674936   -0.08359596983338
C         6.01168166948438    2.70339027211694    0.12616042651814
H         5.81244125434197    1.16946206047684    1.54747000191018
C         5.03886068126930    3.51939608676711   -0.44262565047614
C         7.24634484095427    3.27644481735428    0.43666260279210
C         7.50659417006241    4.60814890781369    0.19931796098397
C         5.28649653512410    4.85846147015758   -0.67838982961361
H         4.06555259462266    3.12662675129321   -0.68849794756132
C         6.52106297873867    5.42059862190341   -0.36049891417730
H         4.52591691768636    5.49496855117157   -1.10573921057987
H         8.01112808499194    2.67312098834132    0.89658684139752
H         8.46585374198838    5.03292941257505    0.44953365649894
C         6.74297543169583    6.85664158963933   -0.60965336847353
O         5.93427115018734    7.60013922469249   -1.13047488028915
O         7.94354146058739    7.28143126991691   -0.19967710794729
C         8.24354613836957    8.66150835167584   -0.39255310828610
H         9.22916284912857    8.80705947891389    0.03879545557231
H         7.50009484819029    9.28417827331364    0.10923058926631
H         8.24260425297132    8.90378988894092   -1.45732229116974
C         8.06134321507032    0.14168059084103    0.92238592363269
H         7.40720660131857    0.83598815075900   -0.97099132624827
H         6.59796216991581   -0.60289324029978   -0.38813223408557
C         9.19806231046181   -0.68960696810407    0.42402153892456
O         8.05652995626179    0.58860335595967    2.04855937862494
C         9.01011742700161   -1.97664332208139   -0.08254873613353
C        10.47948038911067   -0.17448976789115    0.52633163010584
C        11.58236995616823   -0.92807494896994    0.11305671708508
C        11.38921060832476   -2.22817834207188   -0.36648077787339
C        10.10690613871159   -2.73370390091695   -0.45818123815020
H        10.64477258114926    0.81576882880705    0.92169522108652
H         8.02024977163518   -2.39814695474279   -0.14951752060638
H         9.96055409041098   -3.73449118833955   -0.83531328394003
H        12.23529068325270   -2.81034542162502   -0.69397580417356
O        12.79224020357638   -0.32576614319507    0.19100646410565
C        13.93963230777869   -1.02502032629529    0.17415328266966
H        13.96266227305043   -2.04693603170648    0.53652464469488
H        14.81511293254312   -0.40991747459570    0.18568656216586
58
 energy: -94.907561031765 gnorm: 0.006201546539 xtb: 6.4.1 (afa7bdf)
C        -0.42996143479570    0.69748967862617    0.19356108036043
C        -0.51511711956655   -0.63242337655133   -0.21120699879004
C         0.63769821297500   -1.39618439011419   -0.30323373822349
C         1.87645656589870   -0.86016914626422   -0.01331842496319
C         1.97404007699842    0.46978423862558    0.40080350989019
C         0.81885051297065    1.23293880582357    0.50884401630452
O        -1.48679493915167    1.54074610840036    0.31907027050808
C        -2.78669489576909    1.05074784661892    0.05453648726834
H        -2.88373041446099    0.71396588838807   -0.98202665752115
H        -3.45099409130444    1.89494895689314    0.22581765606422
H        -3.05029009720031    0.23445869524705    0.73402410152979
H        -1.46624482349550   -1.08096153574318   -0.44716761778664
H         0.88008973109046    2.25985227532693    0.83624629533351
H         0.55992592087478   -2.42975587011223   -0.60618833682046
H         2.74895082299945   -1.48973460997140   -0.07512734716392
C         3.26682961133796    1.10617867077694    0.77665475490342
C         4.46682486239306    0.65573787135591   -0.02719682776024
O         3.33262511243240    1.92639533076621    1.66877240507444
C         5.79874144658912    1.23640182532131    0.45298177934474
H         4.28879327039211    0.88877972294036   -1.07925607999651
H         4.50735594977742   -0.43072972840589    0.05847512865326
C         6.96745944326637    0.38548173496189   -0.08344233731360
C         6.00766304572410    2.69806329060714    0.12851217488629
H         5.81438238276939    1.16183038720682    1.54950600639337
C         5.03513309934085    3.50608094377729   -0.45244441829263
C         7.23785507655467    3.27533571159935    0.44966780890825
C         7.49573441168977    4.60671657815146    0.20871510841552
C         5.28005726668626    4.84560431860101   -0.69062504929625
H         4.06562651612858    3.10810836503925   -0.70548052456226
C         6.51029729037245    5.41124701558972   -0.36285169588246
H         4.52173508252242    5.47888826363015   -1.12708187397627
H         7.99844588872518    2.67416783717510    0.91948582355014
H         8.45137679054428    5.03608734686357    0.46534125347342
C         6.73070542576962    6.84595771779244   -0.61352937780317
O         5.92220751571332    7.58781550138939   -1.13712309253978
O         7.93122581693875    7.26853115922365   -0.19853542239533
C         8.23222171855138    8.64759415600817   -0.39337723242293
H         9.21826745115934    8.79489337728395    0.03718411311887
H         7.48932310715851    9.27075654341787    0.10842199866454
H         8.23154236380292    8.88639040433463   -1.45890237326044
C         8.06185260263377    0.13918812059079    0.92892452749849
H         7.42372547988402    0.85651027806095   -0.95812563735399
H         6.61245135789557   -0.59510779874322   -0.40802804877350
C         9.19764934531996   -0.68772395649702    0.43097209308750
O         8.05149828574761    0.58199210953483    2.05739970573750
C         9.00391783321161   -1.97132554742441   -0.08163400099280
C        10.47864865227162   -0.17170953765792    0.53079463820859
C        11.57904238276062   -0.92605989321081    0.11197262557448
C        11.38101089886169   -2.22478132856773   -0.37286639034451
C        10.09843264773940   -2.72917620237700   -0.46438215306458
H        10.64500031142623    0.81782098339034    0.92860143496337
H         8.01266303977300   -2.39034595878105   -0.14630367531007
H         9.94843576607908   -3.72810816353562   -0.84592511677707
H        12.22510508252408   -2.80812232676389   -0.70360851270622
O        12.78831582026808   -0.32462908028611    0.18707042674517
C        13.93443123054957   -1.02394151938519    0.19612663586645
H        13.95694200130435   -2.04535229667023    0.51947459194252
H        14.81408999524548   -0.41241540787648    0.18899041472411
58
 energy: -94.907761020364 gnorm: 0.016780549869 xtb: 6.4.1 (afa7bdf)
C        -0.42106000356425    0.70701674785276    0.20119869930285
C        -0.50650688578523   -0.62073780927264   -0.21028086811520
C         0.64486881244695   -1.38561817388811   -0.31105214819720
C         1.88390651897666   -0.85043685153363   -0.01963935171641
C         1.98114295887762    0.47678672627172    0.40277919019792
C         0.82771530376190    1.24152294998949    0.51754448936054
O        -1.47614970300927    1.55156901143760    0.33257509692903
C        -2.77541056871084    1.06381602259432    0.05987868037321
H        -2.86680265354231    0.73446605776231   -0.97956652152179
H        -3.44312005252610    1.90553325435895    0.23355886486955
H        -3.04066033743533    0.24343754623873    0.73361035283082
H        -1.45814381735453   -1.06895739922306   -0.44566903085939
H         0.89235624344091    2.26752077896890    0.84768388798502
H         0.56781281689489   -2.41688268080966   -0.62201541791970
H         2.75641079238191   -1.47907108941137   -0.08814690007756
C         3.27589707412807    1.10684670833136    0.77224910885549
C         4.47575500539268    0.64163849410467   -0.02315629242424
O         3.34729424131752    1.93281429815174    1.65996959922074
C         5.80340898591221    1.22951711075559    0.45657812176895
H         4.30094572100638    0.86638232584106   -1.07763678625506
H         4.51814679780820   -0.44354258874803    0.07282456365171
C         6.97794201702838    0.39004575710012   -0.08300886813369
C         6.00324334093603    2.69278430173888    0.13173994900622
H         5.81962073734700    1.15440409680079    1.55293284379329
C         5.03277901358958    3.49022913853226   -0.46698736287473
C         7.22554191922581    3.27789558424577    0.46908567324552
C         7.47975638948147    4.60892139261140    0.22213304187909
C         5.27321069651496    4.83032139024602   -0.70896171980903
H         4.06881461661283    3.08588786771769   -0.73129225204742
C         6.49646891189128    5.40276317047965   -0.36816380408946
H         4.51675358466246    5.45711452217402   -1.15823042165770
H         7.98123444421435    2.68276109385054    0.95519274379612
H         8.42989515989372    5.04404961808915    0.48948247166091
C         6.71492247169794    6.83727162209454   -0.62197339124598
O         5.90763124644020    7.57616488765421   -1.15005316703539
O         7.91519415956247    7.25760010059750   -0.20007750785874
C         8.21773854660349    8.63530540961182   -0.39721703877065
H         9.20446939880177    8.78574095165275    0.03235368765183
H         7.47581776575618    9.25929237235743    0.10464215271130
H         8.21771186774921    8.87035215376071   -1.46344383705171
C         8.06288890665742    0.13362770910668    0.93671071289134
H         7.44491150981974    0.88085692121263   -0.94172885004675
H         6.63023539669390   -0.58411219309640   -0.43318955429977
C         9.19813706329046   -0.68805042395590    0.43971418755809
O         8.04466585786856    0.56935803155680    2.06864367854038
C         8.99978245603282   -1.96748354744311   -0.08045713098925
C        10.47859739701207   -0.17183276686698    0.54167327681553
C        11.57782822693419   -0.92483892185690    0.11738538201545
C        11.37512777202377   -2.21817468748233   -0.38213028754143
C        10.09284437673823   -2.72303576073408   -0.47409550730806
H        10.64384864289631    0.81564545991532    0.94516107788813
H         8.00760440612339   -2.38513191097134   -0.14131157890098
H         9.94011370556829   -3.71867590376251   -0.86347708716058
H        12.21612242408342   -2.80336184307799   -0.71839123247507
O        12.78526663160683   -0.32386847917841    0.20591629092437
C        13.93291226148637   -1.01147568596573    0.21629847155445
H        13.94862345041770   -2.07425562556882    0.44698252514878
H        14.81576268421815   -0.41298685851715    0.22281499885634
58
 energy: -94.908058678535 gnorm: 0.008672967705 xtb: 6.4.1 (afa7bdf)
C        -0.42035674519473    0.71027262734460    0.20425218035377
C        -0.50891054996840   -0.61536343543556   -0.21188514684134
C         0.64039908222107   -1.38242000121323   -0.31569433705962
C         1.88085679962867   -0.85081817990515   -0.02410809222373
C         1.98224409408248    0.47491223117248    0.40148416511758
C         0.83016514472566    1.24154269268608    0.52016400352783
O        -1.47429143583991    1.55669455828791    0.33851739233225
C        -2.77354561220798    1.07034970179370    0.06251115561128
H        -2.86290446846124    0.74422427675693   -0.97792529115716
H        -3.44192790334441    1.91164588285993    0.23733499406379
H        -3.03953857350636    0.24816679344333    0.73343964906172
H        -1.46101344533076   -1.06122502869813   -0.44981265971071
H         0.89735962252611    2.26533164155556    0.85546043129998
H         0.56101986888143   -2.41198191635830   -0.63037024746531
H         2.75144599024132   -1.48133757346768   -0.09413556593966
C         3.27845462467935    1.09960077207210    0.77565538132348
C         4.47930440570813    0.63501960588008   -0.01793424567450
O         3.34866707086555    1.93217318247642    1.65711626532484
C         5.80614362296870    1.22851736030897    0.45868246126840
H         4.30488613558297    0.85030136506298   -1.07461670895989
H         4.52650822520775   -0.44927238148261    0.08651728448483
C         6.98255283422649    0.39262890216994   -0.08235267411669
C         6.00203143912618    2.69253890144032    0.13353683370796
H         5.82532923236600    1.15407948175712    1.55489154393065
C         5.03458115090953    3.48601993889909   -0.47394867125790
C         7.21910078295161    3.28264275690807    0.47953496374321
C         7.47144607374591    4.61363242846622    0.23004181765248
C         5.27254119833807    4.82626308968922   -0.71732739610018
H         4.07371766863914    3.07928369629767   -0.74546632122140
C         6.49151436078387    5.40363712076895   -0.37048625498479
H         4.51609614311133    5.44827316991891   -1.17295542806076
H         7.97335225783211    2.69264730011327    0.97467406147188
H         8.41854386454004    5.05071756488508    0.50410016346331