38
 energy: -62.950123623135 gnorm: 0.000918419733 xtb: 6.4.1 (afa7bdf)
c        -3.33309245032775    0.36665786659447   -0.07303361766073
c        -2.64270703115682   -0.78805027513037    0.29528539601636
c        -1.26707119146491   -0.72614324562039    0.51095923871588
c        -0.59944950755894    0.47179143402977    0.35740086534497
c        -1.29099758644798    1.63459855085094    0.01403849969216
c        -2.66533670804164    1.56472975079767   -0.21120545425937
h        -3.20389866327727    2.45392383914386   -0.50140137250692
h        -0.73232473700497   -1.61980338356517    0.79064709556738
h         0.46625322615271    0.51901093790425    0.52532785749639
c        -0.55110951457967    2.88469970375655   -0.16538602471532
h         0.28416353858386    2.81891396029616   -0.85387367376095
c        -0.79662835109884    4.06076291358603    0.42514898225512
h        -4.39710097964557    0.30282121300104   -0.24541123465672
c        -3.39713515421521   -2.05338880640145    0.43938380156975
o        -2.62074641859702   -3.07814912166515    0.80193252128628
c        -3.25047246665050   -4.34423905929403    0.96568752391541
h        -2.44691751401238   -5.05295192202848    1.14718607522700
h        -3.80872251563003   -4.60964757735606    0.06539461153203
h        -3.94000513208825   -4.31582520468482    1.81204741530797
o        -4.59098491888589   -2.16534555151738    0.24835773230652
c        -1.82065060799403    4.30095058971903    1.45802938057444
h        -0.19889836306873    4.91719519821466    0.15135040620008
c        -2.05099931125824    5.73059190609507    1.80768470605791
o        -2.45292801405108    3.41121858334363    2.00460818746036
c        -1.01022898300683    6.65283800127794    1.92744358576393
c        -1.29486950905777    7.95645093633422    2.28386461116492
c        -2.59868015968163    8.37218939122005    2.50434447003444
c        -3.64436745103640    7.45915500610669    2.39112963713944
c        -3.35471484527457    6.13605205863256    2.05675953021652
h        -4.16491089000008    5.42676889970898    1.98254709021839
h        -2.78516200539235    9.40024038509452    2.77004859438513
h         0.01452400592092    6.34776610355163    1.78643398609306
h        -0.49116539147679    8.66923110622094    2.39127670636626
o        -4.95534588988960    7.74594895493592    2.58508378184167
c        -5.32377481819987    9.06256447714806    2.93824133985219
h        -4.87826194330901    9.35886427374835    3.89272615325498
h        -6.40773006590844    9.04202629154729    3.03456207425047
h        -5.03987045716785    9.77830264370237    2.16074797115318
38
 energy: -62.902401525441 gnorm: 0.074350929349 xtb: 6.4.1 (afa7bdf)
c        -3.26096458028494    0.01000848996459   -0.51475912165043
c        -2.57951932583365   -0.97554565607217    0.19935381294020
c        -1.37071730691363   -0.67257332123478    0.82363513855863
c        -0.87010643614677    0.60743605350402    0.69989663706582
c        -1.54547683539043    1.60618421175862   -0.00340549995339
c        -2.75862777078533    1.28993009555929   -0.61387479762326
h        -3.28698622797299    2.07188188925645   -1.13762813207145
h        -0.78713447318966   -1.43823356828138    1.30943654939570
h         0.05582844165203    0.90095250020068    1.17174853291250
c        -0.81144998095740    2.84881519926786   -0.24723609851542
h        -0.03845942924319    2.85261145177288   -1.00782490227673
c        -0.87658887072538    4.05847546457757    0.32251372786179
h        -4.22965541121589   -0.12485535871372   -0.97231039116825
c        -3.33250523118071   -2.23092568555929    0.41853644248575
o        -2.54390765093461   -3.18061715839905    0.92898207217398
c        -3.11452376972864   -4.47877496169531    1.05363317754075
h        -2.30374138235886   -5.09981659235936    1.42492204469046
h        -3.50163586218565   -4.90486353685683    0.12562192592268
h        -3.94957505959820   -4.36690240361666    1.74844364480779
o        -4.47965298542691   -2.41652500858341    0.06653149012507
c        -1.81509486073418    4.41824036569034    1.40090582546165
h        -0.18766844875879    4.75744072150739   -0.12755220976651
c        -2.09706801350266    5.87495429939844    1.53383260091332
o        -2.36889823866248    3.59971527494469    2.11747037439821
c        -1.04112107442549    6.75511320612794    1.77545097214415
c        -1.25340649195489    7.94112604155012    2.45055942390249
c        -2.51031774490668    8.40601942690770    2.80470682584934
c        -3.60512107869316    7.63599747420006    2.41950133104851
c        -3.34570400239595    6.38268681986561    1.86432681517199
h        -4.17736376027928    5.71021000485339    1.71898319766578
h        -2.62015892694891    9.33184632277768    3.34604085960658
h        -0.03723317608303    6.42974160553507    1.55315898347205
h        -0.35661621006018    8.49818413157053    2.67636189897331
o        -4.89827934462292    8.03067306658396    2.52200213923759
c        -5.24695595547857    9.22315498990291    3.19308192819631
h        -4.97965077866161    9.20878011636834    4.25405217453536
h        -6.30527661734784    9.28845587743010    2.94741618755101
h        -4.65159316748518   10.03167654968140    2.75809366121510
38
 energy: -62.917486322746 gnorm: 0.081806192680 xtb: 6.4.1 (afa7bdf)
c        -2.92084075401075   -0.30793125071149   -0.93796132077272
c        -2.74685600210541   -0.95706865644738    0.28432827025909
c        -2.06923915567096   -0.32829908552951    1.32749939208409
c        -1.58550551830175    0.94448292320254    1.10305737531786
c        -1.74537157492227    1.61963360527865   -0.10808729443180
c        -2.42490741081616    0.96332614671740   -1.13371695551522
h        -2.51801185809939    1.40449950029247   -2.11434250263460
h        -2.05561857719259   -0.74684846010445    2.32119877490294
h        -1.20044962196308    1.49275079789999    1.94998466160156
c        -1.25895546677234    2.91180799823488   -0.59395281255541
h        -0.70956118163325    2.74102065353672   -1.51320346194644
c        -1.42968131097096    4.12336002481505   -0.05069383902340
h        -3.48060272917985   -0.89148480022292   -1.65352762957563
c        -3.17498377514975   -2.37174390465570    0.36438067017036
o        -2.32469486362230   -3.08879952326321    1.10410683050542
c        -2.65330093043144   -4.46390007717006    1.26985017650086
h        -2.06871700372371   -4.73983235175777    2.14337133950711
h        -2.44405863804127   -5.07650822754734    0.39033835356919
h        -3.73225339557144   -4.46705598896667    1.43848982151889
o        -4.09475319126036   -2.78934130805543   -0.30936943316783
c        -2.16638280382842    4.46881829130599    1.17856744997346
h        -1.07624941978645    5.03079484279691   -0.51692455882234
c        -2.08723204206096    5.86444766819587    1.69349238008415
o        -2.94889908442075    3.69476271515866    1.70644290668909
c        -0.89468887058595    6.46957811638850    2.09316852213038
c        -1.00270227707281    7.76349820267615    2.56387743824493
c        -2.18209527664171    8.47649615529775    2.71233014948851
c        -3.37135979924280    7.81069088447573    2.42551201502117
c        -3.29137723453659    6.52807312411516    1.88255897312400
h        -4.24587193769114    6.14290156434565    1.55761202716530
h        -2.27212849464282    9.39321262369787    3.27249797325450
h         0.01209372846458    5.89483261502426    1.99077587868050
h        -0.11966726093080    8.27623768042950    2.91442083150264
o        -4.63498738981360    8.29459364723451    2.51278716457029
c        -4.93453780062764    9.20070996223999    3.55353659073625
h        -5.03315661227029    8.78067562852409    4.55910212596721
h        -5.89747056395526    9.60285311252528    3.24418264379534
h        -4.22237392441659   10.02195596432704    3.67906097816115
38
 energy: -62.917421456567 gnorm: 0.082235752444 xtb: 6.4.1 (afa7bdf)
c        -2.33365214822442   -0.67461816903353   -1.19142410248672
c        -2.72246504520935   -0.97038338065298    0.11509389982014
c        -2.89370621158459    0.00106061307286    1.09982466679680
c        -2.57918873538849    1.30032451055739    0.75727761966616
c        -2.10388187989052    1.59138326283644   -0.52241964239010
c        -2.12919272968210    0.64235659423227   -1.54375812380442
h        -1.91683809269503    0.96972675718026   -2.55006974293174
h        -3.15230373438729   -0.30421557544273    2.10119437046385
h        -2.55124847309433    2.08180422693368    1.50203279996063
c        -1.61293755901484    2.96002104847830   -0.69030283734049
h        -0.91718441895608    3.02526810839148   -1.51957631408225
c        -1.65135768481500    4.05434431990042    0.07983762145412
h        -2.33429983074344   -1.49928258519046   -1.88844024095031
c        -2.89783654383686   -2.41610776763647    0.37992134166300
o        -2.44105466830261   -2.80560251740838    1.57323559259824
c        -2.20239273673561   -4.20511558964561    1.67695621959254
h        -2.10923494169125   -4.35243644708763    2.74958588433846
h        -1.29567732258710   -4.42513262783695    1.10944253075422
h        -2.99188408981948   -4.77100166736715    1.17789303759991
o        -3.48652104421661   -3.14688541919347   -0.39060906820042
c        -2.70114097646401    4.46249868611144    1.03089955578624
h        -0.95845101465594    4.86497319035868   -0.08893524635941
c        -2.37959716011128    5.73490182049396    1.73573547991016
o        -3.70209346670867    3.79876995358977    1.24931320748964
c        -1.09732685270283    6.13061448165231    2.11950289259188
c        -0.89761016766939    7.37077585830916    2.69358996478006
c        -1.98035043773989    8.21100097444048    2.90111681681748
c        -3.27873163555342    7.83812147254405    2.56188452592212
c        -3.44571517157933    6.59885729916859    1.94330200179344
h        -4.46200661878684    6.25265203748270    1.83239036354568
h        -1.79347344861670    9.19359630736617    3.30341826573648
h        -0.26564258642423    5.45330911952563    2.00711940705777
h         0.11845080712514    7.69103447768485    2.86848363574114
o        -4.32415708869412    8.69906792891619    2.62814419452033
c        -4.40115694238268    9.43275757221747    3.83218203416713
h        -4.38524125601970    8.75507415947446    4.69113979695381
h        -5.34914350157951    9.96752299204853    3.82975016694753
h        -3.57166741541013   10.13698438312008    3.94789926083834
38
 energy: -62.908082123746 gnorm: 0.085842592879 xtb: 6.4.1 (afa7bdf)
c        -2.03933731833749   -0.73005005686727   -1.31151909821795
c        -2.67843211928122   -1.17314204842109   -0.15356003580206
c        -3.29635881407651   -0.29367594143449    0.73381118032065
c        -3.13221707734661    1.07419418916486    0.65421693937949
c        -2.24427404355579    1.52534900405662   -0.32367541793087
c        -1.83022711292925    0.63253513487934   -1.31153833097020
h        -1.16225745434169    0.95804008094006   -2.09434857295188
h        -3.86342199221578   -0.61322521428091    1.59354087711749
h        -3.62739787764609    1.76831335233024    1.31689791725166
c        -1.82517808768147    2.89325253857217   -0.63283405523477
h        -0.99471258311988    2.85323554250198   -1.32907382753592
c        -2.19788957335769    4.13119532666602   -0.28538661005115
h        -1.55266423604664   -1.27349619734659   -2.10758375783230
c        -2.58565768986778   -2.61935050025458    0.14790606440330
o        -2.22978337005164   -2.59996721798298    1.43528033810793
c        -2.08355484819338   -3.76144712740740    2.24517907988410
h        -2.57400641371820   -3.66111304717448    3.20970307830346
h        -1.00016677714764   -3.81974558731713    2.36961261563101
h        -2.46212231437140   -4.64704983722185    1.73041483782076
o        -2.74624832849967   -3.56695629519671   -0.59408885363875
c        -3.16693781613746    4.68299123304615    0.67878173600689
h        -1.62295111675152    4.82195513676194   -0.88373415058605
c        -2.72916986005917    5.78405119566538    1.58167710128579
o        -4.34314261479577    4.35896685372782    0.71997311916778
c        -1.38217741195671    5.87700660550279    1.93530643802691
c        -0.89511538523166    6.92828848437535    2.68699782853650
c        -1.78918502172552    7.85352338413001    3.20270315699178
c        -3.13356714293887    7.78639816951939    2.84487314623323
c        -3.58202595689074    6.81543394765245    1.94909599940601
h        -4.60430142330524    6.81008371679723    1.60278396262235
h        -1.40949151627618    8.55311342856019    3.92979989163106
h        -0.67911701395694    5.10557222021826    1.66389092634449
h         0.12001948562176    6.92030879959163    3.05438154751229
o        -4.08955654110294    8.67807757803179    3.20476982595120
c        -3.86987545477400    9.80514699285609    4.02659179507653
h        -3.41194465183596    9.52310830108498    4.97951892379741
h        -4.86127130850460   10.22391124621408    4.18916253811728
h        -3.20474734498659   10.52208728621841    3.53569469056141
38
 energy: -62.912431829364 gnorm: 0.080403267791 xtb: 6.4.1 (afa7bdf)
c        -1.60770118605281   -0.54783415665798   -1.04329442645621
c        -2.36887971328043   -0.96255637122562    0.04952514461715
c        -3.39622118006979   -0.13995297304944    0.50845310756753
c        -3.39178683596444    1.16689890665361    0.06520942357222
c        -2.42333272254916    1.67005474555899   -0.80495596488956
c        -1.58461217648296    0.76692024488269   -1.45712199903288
h        -0.95608871580160    1.07942768886128   -2.27701600320100
h        -3.94248640589119   -0.56516955283693    1.33524976269848
h        -4.16398517868249    1.86643235246924    0.34895965635905
c        -2.19083623557914    3.08835118633330   -1.08201401088813
h        -1.44143254338357    3.28882522166978   -1.83979260988465
c        -2.56768589423366    4.22342476144310   -0.48057553822532
h        -1.00609768268479   -1.38632838381646   -1.36094832405261
c        -2.27360253086892   -2.35772175363482    0.53475047233040
o        -2.45998919514808   -2.48780692415346    1.85106830390141
c        -2.19188805331128   -3.76127094462049    2.42792660618788
h        -2.97702001282498   -4.11743565161248    3.08946323978185
h        -1.25447142142528   -3.64457468632684    2.97587201398398
h        -2.04717257294430   -4.54681824291478    1.68323836030728
o        -1.96191497969583   -3.27212442377941   -0.20079095127964
c        -3.51505252925872    4.71496729544763    0.53630016271921
h        -2.12834518495914    5.08962732742459   -0.95216430468492
c        -3.01832105331658    5.70988615663994    1.52755600769121
o        -4.69023533261961    4.45441919520793    0.33330678321448
c        -1.68938719881229    5.52454413791991    1.91182960038517
c        -1.11206109960190    6.37070048714990    2.83820800287327
c        -1.85918108052746    7.35875745845336    3.46024277888392
c        -3.16648111533165    7.58885119683995    3.03841950903291
c        -3.75367796581998    6.73678202612591    2.10274782388564
h        -4.82207384274770    6.70901253845116    1.95186084815402
h        -1.35212667694026    8.02845213661101    4.13601486435394
h        -1.07559902888503    4.74686812102179    1.48573641655435
h        -0.06787856555281    6.31819714243150    3.10739103510870
o        -3.87495995318834    8.65878193286043    3.47641432973840
c        -3.17521045003033    9.78442218843466    3.96346795629227
h        -2.56639484205668    9.55730203263608    4.84385227308477
h        -3.92147518533992   10.53393208913409    4.22033822988847
h        -2.55593420799996   10.20546613736614    3.16559723929065
38
 energy: -62.921385404154 gnorm: 0.080848743271 xtb: 6.4.1 (afa7bdf)
c        -1.26376272856830    0.01541094140035   -0.59910727519715
c        -2.21507036274604   -0.49990403006603    0.28129383880091
c        -3.30251664906320    0.28077203767076    0.66952978017936
c        -3.44818084502970    1.57848321488245    0.22335260590724
c        -2.55156685000151    2.02974696850195   -0.74654496153954
c        -1.47114846618725    1.25459127562086   -1.16637152000779
h        -0.78346753990119    1.62945559410450   -1.90900230880620
h        -3.99840019215918   -0.19792804654125    1.33990270218332
h        -4.34650447087866    2.04518761837017    0.59932224053813
c        -2.59326675017256    3.34017196290999   -1.39725837934020
h        -1.98880826003847    3.35122529109158   -2.29755381919793
c        -3.20237423284613    4.42803468251188   -0.90973541388363
h        -0.38610077721106   -0.55293653049736   -0.86853997880966
c        -1.99043127440589   -1.89518535015220    0.72144733510158
o        -2.79610027479891   -2.21865356694943    1.73664216263203
c        -2.55559986351520   -3.44042334326442    2.42641929868842
h        -3.51707059110368   -3.92887581236499    2.56022675114959
h        -1.96742158442874   -3.33469384152682    3.34046509214263
h        -1.94341326687486   -4.01806607663436    1.73061461778550
o        -1.17705691668253   -2.64935105579346    0.22752548657829
c        -3.82896970288343    4.49858656454838    0.42276385849594
h        -3.17398708543864    5.34022369382428   -1.48664830826926
c        -2.95140893204001    5.10294684565333    1.46383522656486
o        -4.97769347995985    4.18233549962815    0.68840495715636
c        -1.66673739674672    4.80530276923213    1.92112084832820
c        -1.01005904197262    5.69960502583552    2.74359272147157
c        -1.61894736164413    6.85993583395420    3.19554357092322
c        -2.90589541651262    7.19446280754886    2.78109475744971
c        -3.53415392024158    6.26338323236862    1.95363744214071
h        -4.49625570835008    6.62677413963522    1.62604779964055
h        -1.14346664700445    7.47054918151852    3.94609835710151
h        -1.19708795144983    3.89751349297439    1.57699971623155
h        -0.10200571388855    5.32125375108770    3.18836541715006
o        -3.62499094590345    8.28712571909378    3.13819825928175
c        -3.05149606395914    9.34437035366189    3.87797795612152
h        -3.11717566726708    9.13826206094397    4.95060189704398
h        -3.67828377748043   10.20088588850347    3.63677931176704
h        -2.05377554277728    9.56021720749486    3.48384263454725
38
 energy: -62.918018474991 gnorm: 0.069758146226 xtb: 6.4.1 (afa7bdf)
c        -0.86779462188273    0.38599968801004   -0.40940692249113
c        -1.83449047157594   -0.23481842872881    0.38162141989028
c        -3.03414950888420    0.41939934564788    0.65646495585539
c        -3.38286787052949    1.56991306561492   -0.02107477873864
c        -2.46429342323200    2.12254003630686   -0.91498825924517
c        -1.20900685450481    1.53915321893419   -1.08333318113051
h        -0.45877595347949    2.08127930947204   -1.63847432736973
h        -3.77817398381129    0.05059348201333    1.34437289705536
h        -4.31636683469752    2.08539493706630    0.14924730589353
c        -2.89675857528686    3.37665876984145   -1.53348691253453
h        -2.52115229339898    3.48335340436434   -2.54519848312024
c        -3.80258991372953    4.17344139739734   -0.95319137642640
h         0.07070293844101   -0.12238291885538   -0.57272494868599
c        -1.58238120143114   -1.49231026058601    1.12064981648048
o        -2.73660290293668   -1.85497607355598    1.68686578858459
c        -2.97896555338851   -3.11991893362676    2.29311180821918
h        -3.89134426505611   -3.40226368187290    1.77468848883199
h        -3.10493010797773   -3.11999666660887    3.37789061180442
h        -2.16484515878658   -3.80732078906436    2.05379113907527
o        -0.55499966948844   -2.13919490766428    1.10248438303464
c        -4.25510736516074    4.34462900683797    0.43931590876665
h        -4.31443660023355    4.94164345604401   -1.51319286945912
c        -3.25257827436150    5.10268704757471    1.23898916252362
o        -5.38232342579803    4.06415167230132    0.81463268722931
c        -2.07542913518493    4.48273381213238    1.66096191267793
c        -1.27749585951478    5.11894117140477    2.59155617131560
c        -1.62002938113221    6.36491380545916    3.09314877392362
c        -2.77229262977758    6.99523528361014    2.62958035776901
c        -3.64030557480031    6.32665065800384    1.76595330261227
h        -4.64298816790764    6.68440126332777    1.58804905024578
h        -0.95468031631412    6.96572922581750    3.69197639495532
h        -1.82447933893076    3.50774963446588    1.27430781765354
h        -0.36286454260316    4.68847832500491    2.97061367284744
o        -3.13091982562306    8.26106160487840    2.95761054339088
c        -2.54043053422998    8.90328305142890    4.06793059219881
h        -2.82342500007201    8.42927625297097    5.01267830763206
h        -3.03423303614043    9.87139890465080    4.00818723431683
h        -1.45671410613319    9.03294334100761    3.98966393697093
38
 energy: -62.922457529581 gnorm: 0.066927483255 xtb: 6.4.1 (afa7bdf)
c        -0.93471224184963    0.73847174990782   -0.03977233141422
c        -1.90428806251259   -0.01521776146782    0.62167802277846
c        -3.20606552590873    0.46888428492169    0.73890516581871
c        -3.58317836237400    1.52371762098338   -0.06698492204232
c        -2.66967107195030    2.16557751350217   -0.90470625560011
c        -1.32247626320874    1.82146246375700   -0.79946668754320
h        -0.60094956876147    2.49247015570791   -1.24000798374389
h        -3.89473516927151    0.04418892739043    1.45176941648120
h        -4.55908401255791    1.98542410692178   -0.04276290299737
c        -3.01751685741493    3.40056988485316   -1.60910486638825
h        -2.54821242015835    3.58722953549278   -2.56875872607915
c        -3.83350455893284    4.36687620597966   -1.17029764777831
h         0.08363045544989    0.39340009288916    0.05925781310994
c        -1.52630234114500   -1.21500227856809    1.40183926260609
o        -2.62962145349235   -1.92148547707588    1.66245993354847
c        -2.54947225034072   -3.21661607838165    2.24775229175866
h        -3.04170763249352   -3.89388189597062    1.55498137293791
h        -3.15517159178195   -3.20129148113832    3.15632567257810
h        -1.52900709194547   -3.57440631922599    2.40014884725291
o        -0.37959495729459   -1.45022346111510    1.72438486143245
c        -4.52873138413360    4.61961709223656    0.10482396773912
h        -3.99282802565153    5.18176343230304   -1.86044099070047
c        -3.56872712768754    5.09475862130746    1.14011417359676
o        -5.72275020008372    4.44697497033051    0.29099539395004
c        -2.57097646633294    4.19640657643390    1.52161120570347
c        -1.56604135344527    4.69545700311418    2.32691664507534
c        -1.58851678203930    5.98910165343788    2.82425991326231
c        -2.69638729051346    6.79688337732679    2.57926439231595
c        -3.68595620844531    6.36000922512874    1.69824361727470
h        -4.46297678042689    6.96880080837430    1.26164370748636
h        -0.84574504608405    6.31318946393263    3.53525934750579
h        -2.45254932871472    3.18851458481918    1.15664554159438
h        -0.73001243553429    4.07329693299705    2.60888417470674
o        -2.89994364872080    8.00276819941177    3.16487515818850
c        -2.00722128280806    8.46723017786874    4.15546003161352
h        -1.82742236708351    7.69821198886567    4.91282382700470
h        -2.48390212451962    9.34356432369615    4.59074420818765
h        -1.03400512830567    8.67004378926151    3.69819020200053
38
 energy: -62.908275115663 gnorm: 0.081370313974 xtb: 6.4.1 (afa7bdf)
c        -1.26864853001353    0.78992964895698    0.11819157449294
c        -2.29926247334958    0.01608507984019    0.65170949201984
c        -3.63356319887505    0.34238648902449    0.41529736147093
c        -3.86819217535685    1.50157941320237   -0.29573531719844
c        -2.84977919592589    2.21736700063223   -0.92719402293365
c        -1.51836027591829    1.86973684470552   -0.70158031932251
h        -0.71623797198027    2.48721210095094   -1.07608390547144
h        -4.41016681762139   -0.18491871532845    0.94599839806210
h        -4.89574481966026    1.83314308928639   -0.31451322959726
c        -3.07795470149159    3.42431031896835   -1.72318668241182
h        -2.68873800526842    3.32243045894017   -2.73023931247511
c        -3.81844019846716    4.47636363885248   -1.35305028651840
h        -0.24346849132438    0.77212036663838    0.45670606513847
c        -1.72709004651054   -0.98532091463800    1.57950934425419
o        -2.38273074932180   -2.13557604932855    1.75671875780899
c        -1.73781548726884   -3.27104361177936    2.32342155250555
h        -1.54924280141529   -4.03858097214404    1.57760458220092
h        -2.49874885831603   -3.61452428584673    3.02741981965238
h        -0.74450499108980   -3.02081588063846    2.70198205390079
o        -0.72408762693984   -0.72283834324530    2.21148371846695
c        -4.49006409512636    4.89638348656818   -0.10980515174615
h        -3.88107903889555    5.37490611393842   -1.94838288910520
c        -3.58865490030726    4.98063178159977    1.07322382580229
o        -5.63555621706081    5.31688652327604   -0.07558155292774
c        -2.68581967073689    4.01918236455589    1.52993671460715
c        -1.72361111115989    4.33631748987143    2.46857560667373
c        -1.67696979599290    5.62347149684633    2.98085608216979
c        -2.65490302589380    6.57400113579769    2.69792249707594
c        -3.58727318264129    6.20415435992477    1.72828194925619
h        -4.27030303861833    6.94748729241820    1.34626866781950
h        -0.89275657805044    5.87977545312933    3.67481642998955
h        -2.70130514698451    3.00625462599325    1.16005981372483
h        -0.92988974599684    3.65079254356937    2.72469126266952
o        -2.72384046454878    7.83138189978106    3.20068961461406
c        -1.72338458280119    8.29459716590442    4.08299128724145
h        -1.50155437020211    7.55043375411757    4.85391847590035
h        -2.05790214515274    9.23146886016951    4.52461093718530
h        -0.81262916298339    8.47302009780017    3.50327706769382
38
 energy: -62.914391212715 gnorm: 0.064726851374 xtb: 6.4.1 (afa7bdf)
c        -1.27382975666210    0.92786574974278   -0.03296296824181
c        -2.18230190045424    0.12454755797981    0.65623957283518
c        -3.51733867744830    0.13317349249662    0.25583461526135
c        -3.98299698156381    1.10502807090082   -0.60614420690179
c        -3.07008120430562    1.98966005472134   -1.18257114278921
c        -1.70328318513961    1.88549643840976   -0.92676312718509
h        -1.00625983867047    2.49448129675542   -1.48194302707676
h        -4.15527466072533   -0.61319555757992    0.70168040915610
h        -5.04124367009921    1.23690836374219   -0.77606494642720
c        -3.48420781569680    3.20400948297684   -1.88701077209857
h        -3.53964392774842    3.16263974013478   -2.96924897656969
c        -3.98475070288877    4.33428095427697   -1.37312444196169
h        -0.24307593759467    0.83173181016879    0.27397054132504
c        -1.71404942287861   -0.76362633605715    1.74384914151656
o        -1.91946780713798   -2.04834660410873    1.44110849191737
c        -1.52715726376580   -3.06639638036248    2.35545056565889
h        -0.86532433894571   -3.75077546199502    1.83150527996859
h        -2.41230916424054   -3.63182182652142    2.65446947327431
h        -1.00985338623954   -2.58295465135258    3.18687615154793
o        -1.22583582304680   -0.37690577355804    2.78615296243596
c        -4.32692257116172    5.01034774417654   -0.10860637480773
h        -4.18034253155436    5.02659501576761   -2.17821337540608
c        -3.39887955797239    5.12998429837105    1.05053862827548
o        -5.40845972159868    5.57595749111531   -0.08603956310841
c        -2.73324260858865    4.03533618898111    1.60439424974682
c        -2.01267168939312    4.17638589587422    2.77415725381397
c        -1.88235214610217    5.44188679288859    3.32451751119341
c        -2.54517995282908    6.53109888729709    2.76399302765445
c        -3.39861094245087    6.37087266474959    1.67207425160781
h        -3.94145136299514    7.22907972688232    1.30627007688353
h        -1.24276743800148    5.67042078631264    4.16175502741189
h        -2.80656917916046    3.10221883749347    1.06868300433795
h        -1.39377753848206    3.40261949858511    3.20286329625953
o        -2.45729771737378    7.80206217089497    3.22817246611783
c        -1.49941882727609    8.23000048534832    4.17330389688640
h        -1.74503769147572    7.97574054790500    5.20884231425358
h        -1.44569812397513    9.31482906326734    4.10316455611878
h        -0.48344901266760    7.90597439966084    3.92796497851612
38
 energy: -62.879647033030 gnorm: 0.081680129397 xtb: 6.4.1 (afa7bdf)
c        -1.24070113572428    1.14528361388621   -0.04492592332074
c        -2.00924472079502    0.17155383142593    0.59290862641225
c        -3.37915645133874    0.18820882883861    0.33642054575576
c        -3.96809354977520    1.13337934438891   -0.47853477305987
c        -3.19343041865684    2.20236672569392   -0.93176740908126
c        -1.81862509568018    2.21238594782547   -0.69888458638296
h        -1.13970739142374    2.99501860354652   -1.00135052531986
h        -4.01941424277743   -0.59483559297885    0.71021047454994
h        -5.02505908684503    1.13612181848910   -0.69982145591306
c        -3.77178883747403    3.22535089220827   -1.80434133757962
h        -3.89083956248657    2.85583914068041   -2.81691826105795
c        -4.17850556062308    4.46308837615644   -1.49657019190480
h        -0.17432445405842    1.08383506022271    0.11308726472986
c        -1.59977600685640   -0.71458994907543    1.70560461279988
o        -1.43352754423845   -1.98670189102766    1.33351937207511
c        -1.42625374453966   -2.92368459927500    2.40513722851681