! Job execution by suborca V 5.02 !
Job started from clu.thch.uni-bonn.de, running /software/cluster/orca_5_0_2_linux_x86-64_openmpi411/orca from /software/cluster/orca_5_0_2_linux_x86-64_openmpi411 on boar230 in /tmp1/rothe/Keton-Li_freqopt__vyKxa6
Going to copy the following really necessary files:  

                                 *****************
                                 * O   R   C   A *
                                 *****************

                                            #,                                       
                                            ###                                      
                                            ####                                     
                                            #####                                    
                                            ######                                   
                                           ########,                                 
                                     ,,################,,,,,                         
                               ,,#################################,,                 
                          ,,##########################################,,             
                       ,#########################################, ''#####,          
                    ,#############################################,,   '####,        
                  ,##################################################,,,,####,       
                ,###########''''           ''''###############################       
              ,#####''   ,,,,##########,,,,          '''####'''          '####       
            ,##' ,,,,###########################,,,                        '##       
           ' ,,###''''                  '''############,,,                           
         ,,##''                                '''############,,,,        ,,,,,,###''
      ,#''                                            '''#######################'''  
     '                                                          ''''####''''         
             ,#######,   #######,   ,#######,      ##                                
            ,#'     '#,  ##    ##  ,#'     '#,    #''#        ######   ,####,        
            ##       ##  ##   ,#'  ##            #'  '#       #        #'  '#        
            ##       ##  #######   ##           ,######,      #####,   #    #        
            '#,     ,#'  ##    ##  '#,     ,#' ,#      #,         ##   #,  ,#        
             '#######'   ##     ##  '#######'  #'      '#     #####' # '####'        



                  #######################################################
                  #                        -***-                        #
                  #          Department of theory and spectroscopy      #
                  #    Directorship and core code : Frank Neese         #
                  #        Max Planck Institute fuer Kohlenforschung    #
                  #                Kaiser Wilhelm Platz 1               #
                  #                 D-45470 Muelheim/Ruhr               #
                  #                      Germany                        #
                  #                                                     #
                  #                  All rights reserved                #
                  #                        -***-                        #
                  #######################################################


                         Program Version 5.0.2 -  RELEASE  -


 With contributions from (in alphabetic order):
   Daniel Aravena         : Magnetic Suceptibility
   Michael Atanasov       : Ab Initio Ligand Field Theory (pilot matlab implementation)
   Alexander A. Auer      : GIAO ZORA, VPT2 properties, NMR spectrum
   Ute Becker             : Parallelization
   Giovanni Bistoni       : ED, misc. LED, open-shell LED, HFLD
   Martin Brehm           : Molecular dynamics
   Dmytro Bykov           : SCF Hessian
   Vijay G. Chilkuri      : MRCI spin determinant printing, contributions to CSF-ICE
   Dipayan Datta          : RHF DLPNO-CCSD density
   Achintya Kumar Dutta   : EOM-CC, STEOM-CC
   Dmitry Ganyushin       : Spin-Orbit,Spin-Spin,Magnetic field MRCI
   Miquel Garcia          : C-PCM and meta-GGA Hessian, CC/C-PCM, Gaussian charge scheme
   Yang Guo               : DLPNO-NEVPT2, F12-NEVPT2, CIM, IAO-localization
   Andreas Hansen         : Spin unrestricted coupled pair/coupled cluster methods
   Benjamin Helmich-Paris : MC-RPA, TRAH-SCF, COSX integrals
   Lee Huntington         : MR-EOM, pCC
   Robert Izsak           : Overlap fitted RIJCOSX, COSX-SCS-MP3, EOM
   Marcus Kettner         : VPT2
   Christian Kollmar      : KDIIS, OOCD, Brueckner-CCSD(T), CCSD density, CASPT2, CASPT2-K
   Simone Kossmann        : Meta GGA functionals, TD-DFT gradient, OOMP2, MP2 Hessian
   Martin Krupicka        : Initial AUTO-CI
   Lucas Lang             : DCDCAS
   Marvin Lechner         : AUTO-CI (C++ implementation), FIC-MRCC
   Dagmar Lenk            : GEPOL surface, SMD
   Dimitrios Liakos       : Extrapolation schemes; Compound Job, initial MDCI parallelization
   Dimitrios Manganas     : Further ROCIS development; embedding schemes
   Dimitrios Pantazis     : SARC Basis sets
   Anastasios Papadopoulos: AUTO-CI, single reference methods and gradients
   Taras Petrenko         : DFT Hessian,TD-DFT gradient, ASA, ECA, R-Raman, ABS, FL, XAS/XES, NRVS
   Peter Pinski           : DLPNO-MP2, DLPNO-MP2 Gradient
   Christoph Reimann      : Effective Core Potentials
   Marius Retegan         : Local ZFS, SOC
   Christoph Riplinger    : Optimizer, TS searches, QM/MM, DLPNO-CCSD(T), (RO)-DLPNO pert. Triples
   Tobias Risthaus        : Range-separated hybrids, TD-DFT gradient, RPA, STAB
   Michael Roemelt        : Original ROCIS implementation
   Masaaki Saitow         : Open-shell DLPNO-CCSD energy and density
   Barbara Sandhoefer     : DKH picture change effects
   Avijit Sen             : IP-ROCIS
   Kantharuban Sivalingam : CASSCF convergence, NEVPT2, FIC-MRCI
   Bernardo de Souza      : ESD, SOC TD-DFT
   Georgi Stoychev        : AutoAux, RI-MP2 NMR, DLPNO-MP2 response
   Willem Van den Heuvel  : Paramagnetic NMR
   Boris Wezisla          : Elementary symmetry handling
   Frank Wennmohs         : Technical directorship


 We gratefully acknowledge several colleagues who have allowed us to
 interface, adapt or use parts of their codes:
   Stefan Grimme, W. Hujo, H. Kruse, P. Pracht,  : VdW corrections, initial TS optimization,
                  C. Bannwarth, S. Ehlert          DFT functionals, gCP, sTDA/sTD-DF
   Ed Valeev, F. Pavosevic, A. Kumar             : LibInt (2-el integral package), F12 methods
   Garnet Chan, S. Sharma, J. Yang, R. Olivares  : DMRG
   Ulf Ekstrom                                   : XCFun DFT Library
   Mihaly Kallay                                 : mrcc  (arbitrary order and MRCC methods)
   Jiri Pittner, Ondrej Demel                    : Mk-CCSD
   Frank Weinhold                                : gennbo (NPA and NBO analysis)
   Christopher J. Cramer and Donald G. Truhlar   : smd solvation model
   Lars Goerigk                                  : TD-DFT with DH, B97 family of functionals
   V. Asgeirsson, H. Jonsson                     : NEB implementation
   FAccTs GmbH                                   : IRC, NEB, NEB-TS, DLPNO-Multilevel, CI-OPT
                                                   MM, QMMM, 2- and 3-layer-ONIOM, Crystal-QMMM,
                                                   LR-CPCM, SF, NACMEs, symmetry and pop. for TD-DFT,
                                                   nearIR, NL-DFT gradient (VV10), updates on ESD,
                                                   ML-optimized integration grids
   S Lehtola, MJT Oliveira, MAL Marques          : LibXC Library
   Liviu Ungur et al                             : ANISO software


 Your calculation uses the libint2 library for the computation of 2-el integrals
 For citations please refer to: http://libint.valeyev.net

 Your ORCA version has been built with support for libXC version: 5.1.0
 For citations please refer to: https://tddft.org/programs/libxc/

 This ORCA versions uses:
   CBLAS   interface :  Fast vector & matrix operations
   LAPACKE interface :  Fast linear algebra routines
   SCALAPACK package :  Parallel linear algebra routines
   Shared memory     :  Shared parallel matrices
   BLAS/LAPACK       :  OpenBLAS 0.3.15  USE64BITINT DYNAMIC_ARCH NO_AFFINITY Barcelona SINGLE_THREADED
        Core in use  :  Barcelona
   Copyright (c) 2011-2014, The OpenBLAS Project


Your calculation utilizes the atom-pairwise dispersion correction
with the Becke-Johnson damping scheme (D3BJ)
Cite in your paper:
S.Grimme, S.Ehrlich, L.Goerigk, J Comput Chem, (2011), 32, 1456–1465 
S.Grimme, J.Antony, S.Ehrlich and H.Krieg, J.Chem.Phys., 132, (2010), 154104 
   

================================================================================

----- Orbital basis set information -----
Your calculation utilizes the basis: def2-TZVP
   F. Weigend and R. Ahlrichs, Phys. Chem. Chem. Phys. 7, 3297 (2005).

----- AuxJ basis set information -----
Your calculation utilizes the auxiliary basis: def2/J
   F. Weigend, Phys. Chem. Chem. Phys. 8, 1057 (2006).

================================================================================
                                        WARNINGS
                       Please study these warnings very carefully!
================================================================================

WARNING: Old DensityContainer found on disk!
         Will remove this file - 
         If you want to keep old densities, please start your calculation with a different basename. 


WARNING: Geometry Optimization
  ===> : Switching off AutoStart
         For restart on a previous wavefunction, please use MOREAD

INFO   : the flag for use of the SHARK integral package has been found!

================================================================================
                                       INPUT FILE
================================================================================
NAME = Keton-Li_freqopt.inp
|  1> ! TPSS D3BJ def2-TZVP RI def2/J CPCM(THF)
|  2> ! Opt numfreq Pal4
|  3> 
|  4> * xyz 0 1
|  5> C       -3.2022730000      1.5052770000      0.0051830000                 
|  6> C       -3.2964020000      0.1112800000     -0.0174160000                 
|  7> C       -2.1114920000     -0.6373780000     -0.0327720000                 
|  8> C       -0.8653850000     -0.0238590000     -0.0260410000                 
|  9> C       -0.7654660000      1.3827460000     -0.0031400000                 
| 10> C       -1.9472900000      2.1278290000      0.0119180000                 
| 11> H       -1.8946770000      3.2112250000      0.0294590000                 
| 12> H       -4.2560230000     -0.3927430000     -0.0233110000                 
| 13> H       -2.1763500000     -1.7224240000     -0.0505910000                 
| 14> H        0.0280800000     -0.6384790000     -0.0389410000                 
| 15> C        0.5486250000      2.1133250000      0.0054310000                 
| 16> C        1.7547031611      1.7644291531      0.5356692485                 
| 17> H        1.8823759380      0.8879198131      1.1590026857                 
| 18> H        2.6304679299      2.3757264454      0.3376010373                 
| 19> O        0.3800955948      3.1777586923     -0.7530390127                 
| 20> Li       0.0986519899      4.5055120847     -1.7064314201                 
| 21> O       -4.2849070000      2.3517400000      0.0219120000                 
| 22> C       -5.5867330000      1.7451140000      0.0156910000                 
| 23> H       -5.7317120000      1.1430180000     -0.8888870000                 
| 24> H       -6.2949750000      2.5739020000      0.0289480000                 
| 25> H       -5.7283660000      1.1173760000      0.9032520000                 
| 26> *
| 27> 
| 28>                          ****END OF INPUT****
================================================================================

                       *****************************
                       * Geometry Optimization Run *
                       *****************************

Geometry optimization settings:
Update method            Update   .... BFGS
Choice of coordinates    CoordSys .... Z-matrix Internals
Initial Hessian          InHess   .... Almoef's Model

Convergence Tolerances:
Energy Change            TolE     ....  5.0000e-06 Eh
Max. Gradient            TolMAXG  ....  3.0000e-04 Eh/bohr
RMS Gradient             TolRMSG  ....  1.0000e-04 Eh/bohr
Max. Displacement        TolMAXD  ....  4.0000e-03 bohr
RMS Displacement         TolRMSD  ....  2.0000e-03 bohr
Strict Convergence                ....  False
------------------------------------------------------------------------------
                        ORCA OPTIMIZATION COORDINATE SETUP
------------------------------------------------------------------------------

The optimization will be done in new redundant internal coordinates
Making redundant internal coordinates   ...  (new redundants) done
Evaluating the initial hessian          ...  (Almloef) done
Evaluating the coordinates              ...  done
Calculating the B-matrix                .... done
Calculating the G-matrix                .... done
Diagonalizing the G-matrix              .... done
Small eigenvalue found = 1.266e-02
Small eigenvalue found = 2.585e-02
The first mode is                       ....   34
The number of degrees of freedom        ....   57

    -----------------------------------------------------------------
                    Redundant Internal Coordinates


    -----------------------------------------------------------------
         Definition                    Initial Value    Approx d2E/dq
    -----------------------------------------------------------------
      1. B(C   1,C   0)                  1.3974         0.608143   
      2. B(C   2,C   1)                  1.4017         0.598532   
      3. B(C   3,C   2)                  1.3890         0.627168   
      4. B(C   4,C   3)                  1.4103         0.579822   
      5. B(C   5,C   0)                  1.4009         0.600211   
      6. B(C   5,C   4)                  1.3972         0.608555   
      7. B(H   6,C   5)                  1.0848         0.367025   
      8. B(H   7,C   1)                  1.0839         0.368194   
      9. B(H   8,C   2)                  1.0871         0.363918   
     10. B(H   9,C   3)                  1.0845         0.367410   
     11. B(C  10,C   4)                  1.5035         0.411700   
     12. B(C  11,C  10)                  1.3629         0.690191   
     13. B(H  12,C  11)                  1.0831         0.369340   
     14. B(H  13,C  11)                  1.0862         0.365132   
     15. B(O  14,C  10)                  1.3178         0.729465   
     16. B(Li 15,O  14)                  1.6586         1.012302   
     17. B(O  16,C   0)                  1.3744         0.592682   
     18. B(C  17,O  16)                  1.4362         0.472175   
     19. B(H  18,C  17)                  1.0963         0.351905   
     20. B(H  19,C  17)                  1.0903         0.359753   
     21. B(H  20,C  17)                  1.0963         0.351858   
     22. A(C   1,C   0,C   5)          120.2478         0.430048   
     23. A(C   1,C   0,O  16)          124.1629         0.426277   
     24. A(C   5,C   0,O  16)          115.5893         0.425276   
     25. A(C   0,C   1,C   2)          118.4284         0.429832   
     26. A(C   0,C   1,H   7)          121.5737         0.353083   
     27. A(C   2,C   1,H   7)          119.9979         0.352133   
     28. A(C   1,C   2,C   3)          121.4949         0.432217   
     29. A(C   3,C   2,H   8)          119.6345         0.354229   
     30. A(C   1,C   2,H   8)          118.8707         0.351438   
     31. A(C   4,C   3,H   9)          120.4671         0.350122   
     32. A(C   2,C   3,C   4)          120.2769         0.429758   
     33. A(C   2,C   3,H   9)          119.2560         0.354803   
     34. A(C   5,C   4,C  10)          118.6920         0.402203   
     35. A(C   3,C   4,C  10)          123.1362         0.398793   
     36. A(C   3,C   4,C   5)          118.1718         0.427443   
     37. A(C   0,C   5,H   6)          119.1652         0.352110   
     38. A(C   0,C   5,C   4)          121.3803         0.430100   
     39. A(C   4,C   5,H   6)          119.4545         0.352934   
     40. A(C  11,C  10,O  14)          122.9463         0.452780   
     41. A(C   4,C  10,O  14)          106.1063         0.412632   
     42. A(C   4,C  10,C  11)          130.6363         0.411255   
     43. A(H  12,C  11,H  13)          117.7317         0.292639   
     44. A(C  10,C  11,H  13)          119.8986         0.360244   
     45. A(C  10,C  11,H  12)          122.3697         0.360949   
     46. L(C  10,O  14,Li 15,C   4, 2) 179.2154         0.526125   
     47. L(C  10,O  14,Li 15,C   4, 1) 177.6242         0.526125   
     48. A(C   0,O  16,C  17)          116.9893         0.404881   
     49. A(O  16,C  17,H  20)          110.8205         0.333803   
     50. A(H  18,C  17,H  19)          109.9762         0.289747   
     51. A(O  16,C  17,H  19)          105.5265         0.335035   
     52. A(O  16,C  17,H  18)          110.8193         0.333810   
     53. A(H  19,C  17,H  20)          109.9685         0.289741   
     54. A(H  18,C  17,H  20)          109.6616         0.288741   
     55. D(H   7,C   1,C   0,O  16)      0.0103         0.025534   
     56. D(H   7,C   1,C   0,C   5)   -179.9823         0.025534   
     57. D(C   2,C   1,C   0,O  16)   -179.9982         0.025534   
     58. D(C   2,C   1,C   0,C   5)      0.0093         0.025534   
     59. D(C   3,C   2,C   1,C   0)     -0.0037         0.024690   
     60. D(C   3,C   2,C   1,H   7)    179.9880         0.024690   
     61. D(H   8,C   2,C   1,H   7)      0.0042         0.024690   
     62. D(H   8,C   2,C   1,C   0)   -179.9876         0.024690   
     63. D(H   9,C   3,C   2,H   8)      0.0142         0.027257   
     64. D(H   9,C   3,C   2,C   1)   -179.9696         0.027257   
     65. D(C   4,C   3,C   2,H   8)    179.9927         0.027257   
     66. D(C   4,C   3,C   2,C   1)      0.0090         0.027257   
     67. D(C  10,C   4,C   3,C   2)    179.9956         0.023097   
     68. D(C   5,C   4,C   3,H   9)    179.9588         0.023097   
     69. D(C   5,C   4,C   3,C   2)     -0.0194         0.023097   
     70. D(C  10,C   4,C   3,H   9)     -0.0261         0.023097   
     71. D(H   6,C   5,C   4,C  10)     -0.0050         0.025570   
     72. D(C   0,C   5,C   4,C  10)   -179.9890         0.025570   
     73. D(C   0,C   5,C   4,C   3)      0.0254         0.025570   
     74. D(H   6,C   5,C   0,O  16)      0.0021         0.024836   
     75. D(H   6,C   5,C   0,C   1)    179.9952         0.024836   
     76. D(H   6,C   5,C   4,C   3)   -179.9906         0.025570   
     77. D(C   4,C   5,C   0,O  16)    179.9861         0.024836   
     78. D(C   4,C   5,C   0,C   1)     -0.0207         0.024836   
     79. D(O  14,C  10,C   4,C   5)    -37.8035         0.011620   
     80. D(O  14,C  10,C   4,C   3)    142.1813         0.011620   
     81. D(C  11,C  10,C   4,C   5)    148.6002         0.011620   
     82. D(C  11,C  10,C   4,C   3)    -31.4149         0.011620   
     83. D(H  13,C  11,C  10,C   4)    172.6399         0.033472   
     84. D(H  12,C  11,C  10,O  14)    179.9243         0.033472   
     85. D(H  12,C  11,C  10,C   4)     -7.4119         0.033472   
     86. D(H  13,C  11,C  10,O  14)     -0.0239         0.033472   
     87. D(C  17,O  16,C   0,C   5)   -179.9943         0.025615   
     88. D(C  17,O  16,C   0,C   1)      0.0129         0.025615   
     89. D(H  20,C  17,O  16,C   0)     61.1144         0.017577   
     90. D(H  19,C  17,O  16,C   0)   -179.8830         0.017577   
     91. D(H  18,C  17,O  16,C   0)    -60.8718         0.017577   
    -----------------------------------------------------------------

Number of atoms                         .... 21
Number of degrees of freedom            .... 91

         *************************************************************
         *                GEOMETRY OPTIMIZATION CYCLE   1            *
         *************************************************************
---------------------------------
CARTESIAN COORDINATES (ANGSTROEM)
---------------------------------
  C     -3.202273    1.505277    0.005183
  C     -3.296402    0.111280   -0.017416
  C     -2.111492   -0.637378   -0.032772
  C     -0.865385   -0.023859   -0.026041
  C     -0.765466    1.382746   -0.003140
  C     -1.947290    2.127829    0.011918
  H     -1.894677    3.211225    0.029459
  H     -4.256023   -0.392743   -0.023311
  H     -2.176350   -1.722424   -0.050591
  H      0.028080   -0.638479   -0.038941
  C      0.548625    2.113325    0.005431
  C      1.754703    1.764429    0.535669
  H      1.882376    0.887920    1.159003
  H      2.630468    2.375726    0.337601
  O      0.380096    3.177759   -0.753039
  Li     0.098652    4.505512   -1.706431
  O     -4.284907    2.351740    0.021912
  C     -5.586733    1.745114    0.015691
  H     -5.731712    1.143018   -0.888887
  H     -6.294975    2.573902    0.028948
  H     -5.728366    1.117376    0.903252

----------------------------
CARTESIAN COORDINATES (A.U.)
----------------------------
  NO LB      ZA    FRAG     MASS         X           Y           Z
   0 C     6.0000    0    12.011   -6.051419    2.844561    0.009794
   1 C     6.0000    0    12.011   -6.229297    0.210289   -0.032911
   2 C     6.0000    0    12.011   -3.990142   -1.204470   -0.061930
   3 C     6.0000    0    12.011   -1.635341   -0.045087   -0.049210
   4 C     6.0000    0    12.011   -1.446521    2.613011   -0.005934
   5 C     6.0000    0    12.011   -3.679845    4.021014    0.022522
   6 H     1.0000    0     1.008   -3.580421    6.068336    0.055669
   7 H     1.0000    0     1.008   -8.042718   -0.742177   -0.044051
   8 H     1.0000    0     1.008   -4.112705   -3.254910   -0.095603
   9 H     1.0000    0     1.008    0.053064   -1.206550   -0.073588
  10 C     6.0000    0    12.011    1.036751    3.993605    0.010263
  11 C     6.0000    0    12.011    3.315908    3.334288    1.012268
  12 H     1.0000    0     1.008    3.557175    1.677925    2.190198
  13 H     1.0000    0     1.008    4.970864    4.489472    0.637974
  14 O     8.0000    0    15.999    0.718277    6.005094   -1.423038
  15 Li    3.0000    0     6.941    0.186425    8.514184   -3.224688
  16 O     8.0000    0    15.999   -8.097301    4.444145    0.041408
  17 C     6.0000    0    12.011  -10.557395    3.297788    0.029652
  18 H     1.0000    0     1.008  -10.831366    2.159991   -1.679753
  19 H     1.0000    0     1.008  -11.895779    4.863970    0.054704
  20 H     1.0000    0     1.008  -10.825043    2.111535    1.706899

--------------------------------
INTERNAL COORDINATES (ANGSTROEM)
--------------------------------
 C      0   0   0     0.000000000000     0.00000000     0.00000000
 C      1   0   0     1.397354149617     0.00000000     0.00000000
 C      2   1   0     1.401690520693   118.42841839     0.00000000
 C      3   2   1     1.388968511224   121.49485160     0.00000000
 C      4   3   2     1.410335381527   120.27689468     0.00000000
 C      5   4   3     1.397169777525   118.17178693     0.00000000
 H      6   5   4     1.084814595802   119.45453868   180.00943311
 H      2   1   3     1.083949444944   121.57365753   180.00841067
 H      3   2   1     1.087128740785   118.87065659   180.01243812
 H      4   3   2     1.084529326770   119.25598439   180.03043362
 C      5   4   3     1.503547236891   123.13621610   179.99564153
 C     11   5   4     1.362903313826   130.63629910   328.58507794
 H     12  11   5     1.083103658474   122.36966397   352.58806088
 H     12  11   5     1.086222503050   119.89861531   172.63985759
 O     11   5   4     1.317838383826   106.10628674   142.18130829
 Li    15  11   5     1.658643016522   177.56916721    12.51451501
 O      1   2   3     1.374363797459   124.16291777   180.00184844
 C     17   1   2     1.436239791606   116.98929746     0.00000000
 H     18  17   1     1.096266327924   110.81929016   299.12816254
 H     18  17   1     1.090262366386   105.52651634   180.11703710
 H     18  17   1     1.096302618830   110.82052706    61.11440813

---------------------------
INTERNAL COORDINATES (A.U.)
---------------------------
 C      0   0   0     0.000000000000     0.00000000     0.00000000
 C      1   0   0     2.640616654874     0.00000000     0.00000000
 C      2   1   0     2.648811208623   118.42841839     0.00000000
 C      3   2   1     2.624770094853   121.49485160     0.00000000
 C      4   3   2     2.665147628065   120.27689468     0.00000000
 C      5   4   3     2.640268242114   118.17178693     0.00000000
 H      6   5   4     2.050002492147   119.45453868   180.00943311
 H      2   1   3     2.048367593961   121.57365753   180.00841067
 H      3   2   1     2.054375592399   118.87065659   180.01243812
 H      4   3   2     2.049463411802   119.25598439   180.03043362
 C      5   4   3     2.841292507138   123.13621610   179.99564153
 C     11   5   4     2.575514010145   130.63629910   328.58507794
 H     12  11   5     2.046769289164   122.36966397   352.58806088
 H     12  11   5     2.052663051267   119.89861531   172.63985759
 O     11   5   4     2.490353634201   106.10628674   142.18130829
 Li    15  11   5     3.134381055167   177.56916721    12.51451501
 O      1   2   3     2.597171185574   124.16291777   180.00184844
 C     17   1   2     2.714099868776   116.98929746     0.00000000
 H     18  17   1     2.071643129617   110.81929016   299.12816254
 H     18  17   1     2.060297286590   105.52651634   180.11703710
 H     18  17   1     2.071711709490   110.82052706    61.11440813

---------------------
BASIS SET INFORMATION
---------------------
There are 4 groups of distinct atoms

 Group   1 Type C   : 11s6p2d1f contracted to 5s3p2d1f pattern {62111/411/11/1}
 Group   2 Type H   : 5s1p contracted to 3s1p pattern {311/1}
 Group   3 Type O   : 11s6p2d1f contracted to 5s3p2d1f pattern {62111/411/11/1}
 Group   4 Type Li  : 11s3p contracted to 5s3p pattern {62111/111}

Atom   0C    basis set group =>   1
Atom   1C    basis set group =>   1
Atom   2C    basis set group =>   1
Atom   3C    basis set group =>   1
Atom   4C    basis set group =>   1
Atom   5C    basis set group =>   1
Atom   6H    basis set group =>   2
Atom   7H    basis set group =>   2
Atom   8H    basis set group =>   2
Atom   9H    basis set group =>   2
Atom  10C    basis set group =>   1
Atom  11C    basis set group =>   1
Atom  12H    basis set group =>   2
Atom  13H    basis set group =>   2
Atom  14O    basis set group =>   3
Atom  15Li   basis set group =>   4
Atom  16O    basis set group =>   3
Atom  17C    basis set group =>   1
Atom  18H    basis set group =>   2
Atom  19H    basis set group =>   2
Atom  20H    basis set group =>   2
---------------------------------
AUXILIARY/J BASIS SET INFORMATION
---------------------------------
There are 4 groups of distinct atoms

 Group   1 Type C   : 12s5p4d2f1g contracted to 6s4p3d1f1g pattern {711111/2111/211/2/1}
 Group   2 Type H   : 5s2p1d contracted to 3s1p1d pattern {311/2/1}
 Group   3 Type O   : 12s5p4d2f1g contracted to 6s4p3d1f1g pattern {711111/2111/211/2/1}
 Group   4 Type Li  : 12s5p4d2f1g contracted to 6s4p3d1f1g pattern {711111/2111/211/2/1}

Atom   0C    basis set group =>   1
Atom   1C    basis set group =>   1
Atom   2C    basis set group =>   1
Atom   3C    basis set group =>   1
Atom   4C    basis set group =>   1
Atom   5C    basis set group =>   1
Atom   6H    basis set group =>   2
Atom   7H    basis set group =>   2
Atom   8H    basis set group =>   2
Atom   9H    basis set group =>   2
Atom  10C    basis set group =>   1
Atom  11C    basis set group =>   1
Atom  12H    basis set group =>   2
Atom  13H    basis set group =>   2
Atom  14O    basis set group =>   3
Atom  15Li   basis set group =>   4
Atom  16O    basis set group =>   3
Atom  17C    basis set group =>   1
Atom  18H    basis set group =>   2
Atom  19H    basis set group =>   2
Atom  20H    basis set group =>   2


           ************************************************************
           *        Program running with 4 parallel MPI-processes     *
           *              working on a common directory               *
           ************************************************************
------------------------------------------------------------------------------
                           ORCA GTO INTEGRAL CALCULATION
                           -- RI-GTO INTEGRALS CHOSEN --
------------------------------------------------------------------------------
------------------------------------------------------------------------------
                   ___                                                        
                  /   \      - P O W E R E D   B Y -                         
                 /     \                                                     
                 |  |  |   _    _      __       _____    __    __             
                 |  |  |  | |  | |    /  \     |  _  \  |  |  /  |          
                  \  \/   | |  | |   /    \    | | | |  |  | /  /          
                 / \  \   | |__| |  /  /\  \   | |_| |  |  |/  /          
                |  |  |   |  __  | /  /__\  \  |    /   |      \           
                |  |  |   | |  | | |   __   |  |    \   |  |\   \          
                \     /   | |  | | |  |  |  |  | |\  \  |  | \   \       
                 \___/    |_|  |_| |__|  |__|  |_| \__\ |__|  \__/        
                                                                              
                      - O R C A' S   B I G   F R I E N D -                    
                                      &                                       
                       - I N T E G R A L  F E E D E R -                       
                                                                              
 v1 FN, 2020, v2 2021                                                         
------------------------------------------------------------------------------


Reading SHARK input file Keton-Li_freqopt.SHARKINP.tmp ... ok
----------------------
SHARK INTEGRAL PACKAGE
----------------------

Number of atoms                             ...     21
Number of basis functions                   ...    409
Number of shells                            ...    165
Maximum angular momentum                    ...      3
Integral batch strategy                     ... SHARK/LIBINT Hybrid
RI-J (if used) integral strategy            ... SPLIT-RIJ (Revised 2003 algorithm where possible)
Printlevel                                  ...      1
Contraction scheme used                     ... SEGMENTED contraction
Coulomb Range Separation                    ... NOT USED
Exchange Range Separation                   ... NOT USED
Finite Nucleus Model                        ... NOT USED
Auxiliary Coulomb fitting basis             ... AVAILABLE
   # of basis functions in Aux-J            ...    687
   # of shells in Aux-J                     ...    225
   Maximum angular momentum in Aux-J        ...      4
Auxiliary J/K fitting basis                 ... NOT available
Auxiliary Correlation fitting basis         ... NOT available
Auxiliary 'external' fitting basis          ... NOT available
Integral threshold                          ...     2.500000e-11
Primitive cut-off                           ...     2.500000e-12
Primitive pair pre-selection threshold      ...     2.500000e-12

Calculating pre-screening integrals         ... done (  0.1 sec) Dimension = 165
Organizing shell pair data                  ... done (  0.2 sec)
Shell pair information
Total number of shell pairs                 ...     13695
Shell pairs after pre-screening             ...     11393
Total number of primitive shell pairs       ...     41901
Primitive shell pairs kept                  ...     24981
          la=0 lb=0:   3034 shell pairs
          la=1 lb=0:   3295 shell pairs
          la=1 lb=1:    912 shell pairs
          la=2 lb=0:   1600 shell pairs
          la=2 lb=1:    871 shell pairs
          la=2 lb=2:    222 shell pairs
          la=3 lb=0:    770 shell pairs
          la=3 lb=1:    425 shell pairs
          la=3 lb=2:    207 shell pairs
          la=3 lb=3:     57 shell pairs

Calculating one electron integrals          ... done (  0.1 sec)
Calculating RI/J V-Matrix + Cholesky decomp.... done (  0.1 sec)
Calculating Nuclear repulsion               ... done (  0.0 sec) ENN=    592.957657016020 Eh

SHARK setup successfully completed in   0.9 seconds

Maximum memory used throughout the entire GTOINT-calculation: 24.3 MB


           ************************************************************
           *        Program running with 4 parallel MPI-processes     *
           *              working on a common directory               *
           ************************************************************
-------------------------------------------------------------------------------
                                 ORCA SCF
-------------------------------------------------------------------------------

------------
SCF SETTINGS
------------
Hamiltonian:
 Density Functional     Method          .... DFT(GTOs)
 Exchange Functional    Exchange        .... TPSS
 Correlation Functional Correlation     .... TPSS
 LDA part of GGA corr.  LDAOpt          .... PW91-LDA
 Gradients option       PostSCFGGA      .... off
   Density functional embedding theory  .... OFF
   NL short-range parameter             ....  5.000000
 RI-approximation to the Coulomb term is turned on
   Number of AuxJ basis functions       .... 687


General Settings:
 Integral files         IntName         .... Keton-Li_freqopt
 Hartree-Fock type      HFTyp           .... RHF
 Total Charge           Charge          ....    0
 Multiplicity           Mult            ....    1
 Number of Electrons    NEL             ....   82
 Basis Dimension        Dim             ....  409
 Nuclear Repulsion      ENuc            ....    592.9576570160 Eh

Convergence Acceleration:
 DIIS                   CNVDIIS         .... on
   Start iteration      DIISMaxIt       ....    12
   Startup error        DIISStart       ....  0.200000
   # of expansion vecs  DIISMaxEq       ....     5
   Bias factor          DIISBfac        ....   1.050
   Max. coefficient     DIISMaxC        ....  10.000
 Trust-Rad. Augm. Hess. CNVTRAH         .... auto
   Auto Start mean grad. ratio tolernc. ....  1.125000
   Auto Start start iteration           ....    20
   Auto Start num. interpolation iter.  ....    10
   Max. Number of Micro iterations      ....    16
   Max. Number of Macro iterations      .... Maxiter - #DIIS iter
   Number of Davidson start vectors     ....     2
   Converg. threshold I  (grad. norm)   ....   1.000e-05
   Converg. threshold II (energy diff.) ....   1.000e-08
   Grad. Scal. Fac. for Micro threshold ....   0.100
   Minimum threshold for Micro iter.    ....   0.010
   NR start threshold (gradient norm)   ....   0.001
   Initial trust radius                 ....   0.400
   Minimum AH scaling param. (alpha)    ....   1.000
   Maximum AH scaling param. (alpha)    .... 1000.000
   Orbital update algorithm             .... Taylor
   White noise on init. David. guess    .... on
   Maximum white noise                  ....   0.010
   Quad. conv. algorithm                .... NR
 SOSCF                  CNVSOSCF        .... on
   Start iteration      SOSCFMaxIt      ....   150
   Startup grad/error   SOSCFStart      ....  0.003300
 Level Shifting         CNVShift        .... on
   Level shift para.    LevelShift      ....    0.2500
   Turn off err/grad.   ShiftErr        ....    0.0010
 Zerner damping         CNVZerner       .... off
 Static damping         CNVDamp         .... on
   Fraction old density DampFac         ....    0.7000
   Max. Damping (<1)    DampMax         ....    0.9800
   Min. Damping (>=0)   DampMin         ....    0.0000
   Turn off err/grad.   DampErr         ....    0.1000
 Fernandez-Rico         CNVRico         .... off

SCF Procedure:
 Maximum # iterations   MaxIter         ....   125
 SCF integral mode      SCFMode         .... Direct
   Integral package                     .... SHARK and LIBINT hybrid scheme
 Reset frequency        DirectResetFreq ....    20
 Integral Threshold     Thresh          ....  2.500e-11 Eh
 Primitive CutOff       TCut            ....  2.500e-12 Eh

Convergence Tolerance:
 Convergence Check Mode ConvCheckMode   .... Total+1el-Energy
 Convergence forced     ConvForced      .... 0
 Energy Change          TolE            ....  1.000e-08 Eh
 1-El. energy change                    ....  1.000e-05 Eh
 Orbital Gradient       TolG            ....  1.000e-05
 Orbital Rotation angle TolX            ....  1.000e-05
 DIIS Error             TolErr          ....  5.000e-07


Diagonalization of the overlap matrix:
Smallest eigenvalue                        ... 8.140e-06
Time for diagonalization                   ...    0.083 sec
Threshold for overlap eigenvalues          ... 1.000e-08
Number of eigenvalues below threshold      ... 0
Time for construction of square roots      ...    0.049 sec
Total time needed                          ...    0.135 sec

Time for model grid setup =    0.414 sec

------------------------------
INITIAL GUESS: MODEL POTENTIAL
------------------------------
Loading Hartree-Fock densities                     ... done
Calculating cut-offs                               ... done
Initializing the effective Hamiltonian             ... done
Setting up the integral package (SHARK)            ... done
Starting the Coulomb interaction                   ... done (   0.5 sec)
Reading the grid                                   ... done
Mapping shells                                     ... done
Starting the XC term evaluation                    ... done (   0.5 sec)
  promolecular density results
     # of electrons  =     81.992750551
     EX              =    -66.705579044
     EC              =     -2.685168624
     EX+EC           =    -69.390747667
Transforming the Hamiltonian                       ... done (   0.0 sec)
Diagonalizing the Hamiltonian                      ... done (   0.1 sec)
Back transforming the eigenvectors                 ... done (   0.0 sec)
Now organizing SCF variables                       ... done
                      ------------------
                      INITIAL GUESS DONE (   1.6 sec)
                      ------------------
-------------------
DFT GRID GENERATION
-------------------

General Integration Accuracy     IntAcc      ... 4.388
Radial Grid Type                 RadialGrid  ... OptM3 with GC (2021)
Angular Grid (max. ang.)         AngularGrid ... 4 (Lebedev-302)
Angular grid pruning method      GridPruning ... 4 (adaptive)
Weight generation scheme         WeightScheme... Becke
Basis function cutoff            BFCut       ... 1.0000e-11
Integration weight cutoff        WCut        ... 1.0000e-14
Angular grids for H and He will be reduced by one unit
Partially contracted basis set               ... off
Rotationally invariant grid construction     ... off

Total number of grid points                  ...   100848
Total number of batches                      ...     1585
Average number of points per batch           ...       63
Average number of grid points per atom       ...     4802
Time for grid setup =    1.531 sec


--------------------
CPCM SOLVATION MODEL
--------------------
CPCM parameters:
  Epsilon                                         ...       7.2500
  Refrac                                          ...       1.4070
  Rsolv                                           ...       1.3000
  Surface type                                    ... GAUSSIAN VDW
  Epsilon function type                           ...         CPCM
Radii:
 Radius for C  used is    3.8550 Bohr (=   2.0400 Ang.)
 Radius for H  used is    2.4944 Bohr (=   1.3200 Ang.)
 Radius for O  used is    3.4469 Bohr (=   1.8240 Ang.)
 Radius for Li used is    4.1272 Bohr (=   2.1840 Ang.)
Calculating surface                               ...        done! (  0.0s)
GEPOL surface points                              ...         1187
GEPOL Volume                                      ...    1480.7904
GEPOL Surface-area                                ...     809.4843
Calculating surface distance matrix               ...        done! (  0.0s)
Performing Cholesky decomposition & store         ...        done! (  0.2s)
Overall time for CPCM initialization              ...                 0.2s
--------------
SCF ITERATIONS
--------------
ITER       Energy         Delta-E        Max-DP      RMS-DP      [F,P]     Damp
               ***  Starting incremental Fock matrix formation  ***
  0   -506.3127892494   0.000000000000 0.17329894  0.00222421  0.3473203 0.7000
  1   -506.4764230467  -0.163633797290 0.16476510  0.00201374  0.1042409 0.7000
                               ***Turning on DIIS***
  2   -506.5313629810  -0.054939934248 0.22699657  0.00305112  0.0365026 0.0000
  3   -506.6228980132  -0.091535032211 0.16072743  0.00173813  0.0611704 0.0000
  4   -506.6444864826  -0.021588469391 0.04882326  0.00059147  0.0337394 0.0000
  5   -506.6470081481  -0.002521665540 0.02157457  0.00027082  0.0063453 0.0000
                      *** Initiating the SOSCF procedure ***
                           *** Shutting down DIIS ***
                      *** Re-Reading the Fockian *** 
                      *** Removing any level shift *** 
ITER      Energy       Delta-E        Grad      Rot      Max-DP    RMS-DP
  6   -506.64714098  -0.0001328310  0.000598  0.000598  0.006966  0.000079
               *** Restarting incremental Fock matrix formation ***
  7   -506.64715834  -0.0000173615  0.000328  0.001725  0.004651  0.000062
  8   -506.64715643   0.0000019138  0.000455  0.000821  0.001711  0.000022
  9   -506.64716346  -0.0000070356  0.000112  0.000435  0.001467  0.000019
 10   -506.64716338   0.0000000786  0.000116  0.000384  0.000280  0.000005
 11   -506.64716394  -0.0000005608  0.000070  0.000340  0.000832  0.000011
 12   -506.64716400  -0.0000000545  0.000029  0.000054  0.000190  0.000002
 13   -506.64716406  -0.0000000619  0.000021  0.000147  0.000453  0.000005
 14   -506.64716408  -0.0000000182  0.000014  0.000058  0.000147  0.000002
 15   -506.64716409  -0.0000000086  0.000006  0.000032  0.000084  0.000001
 16   -506.64716409  -0.0000000041  0.000006  0.000026  0.000074  0.000001
                  ***Gradient check signals convergence***
              ***Rediagonalizing the Fockian in SOSCF/NRSCF***

               *****************************************************
               *                     SUCCESS                       *
               *           SCF CONVERGED AFTER  17 CYCLES          *
               *****************************************************


----------------
TOTAL SCF ENERGY
----------------

Total Energy       :         -506.64716409 Eh          -13786.57023 eV

Components:
Nuclear Repulsion  :          592.95765702 Eh           16135.19815 eV
Electronic Energy  :        -1099.60482111 Eh          -29921.76838 eV
One Electron Energy:        -1866.10149197 Eh          -50779.20316 eV
Two Electron Energy:          766.49667087 Eh           20857.43479 eV
CPCM Dielectric    :           -0.02749780 Eh              -0.74825 eV

Virial components:
Potential Energy   :        -1011.00653149 Eh          -27510.88635 eV
Kinetic Energy     :          504.35936740 Eh           13724.31612 eV
Virial Ratio       :            2.00453604


DFT components:
N(Alpha)           :       41.000015366477 electrons
N(Beta)            :       41.000015366477 electrons
N(Total)           :       82.000030732954 electrons
E(X)               :      -68.812226709502 Eh       
E(C)               :       -2.712310075627 Eh       
E(XC)              :      -71.524536785129 Eh       
DFET-embed. en.    :        0.000000000000 Eh       
CPCM Solvation Model Properties:
Surface-charge          :           -0.02741245
Charge-correction       :            0.00002847 Eh               0.00077 eV
Free-energy (cav+disp)  :  This term is not implemented in the current solvation scheme

---------------
SCF CONVERGENCE
---------------

  Last Energy change         ...    1.5110e-09  Tolerance :   1.0000e-08
  Last MAX-Density change    ...    2.2277e-04  Tolerance :   1.0000e-07
  Last RMS-Density change    ...    2.6220e-06  Tolerance :   5.0000e-09
  Last Orbital Gradient      ...    1.1276e-06  Tolerance :   1.0000e-05
  Last Orbital Rotation      ...    6.9915e-06  Tolerance :   1.0000e-05

             **** THE GBW FILE WAS UPDATED (Keton-Li_freqopt.gbw) ****
             **** DENSITY Keton-Li_freqopt.scfp WAS UPDATED ****
             **** ENERGY FILE WAS UPDATED (Keton-Li_freqopt.en.tmp) ****
             **** THE GBW FILE WAS UPDATED (Keton-Li_freqopt.gbw) ****
             **** DENSITY Keton-Li_freqopt.scfp WAS UPDATED ****
----------------
ORBITAL ENERGIES
----------------

  NO   OCC          E(Eh)            E(eV) 
   0   2.0000     -18.910720      -514.5869 
   1   2.0000     -18.818728      -512.0836 
   2   2.0000     -10.040064      -273.2040 
   3   2.0000     -10.032582      -273.0004 
   4   2.0000     -10.019306      -272.6392 
   5   2.0000      -9.988631      -271.8045 
   6   2.0000      -9.984183      -271.6834 
   7   2.0000      -9.981607      -271.6133 
   8   2.0000      -9.976857      -271.4841 
   9   2.0000      -9.974881      -271.4303 
  10   2.0000      -9.941001      -270.5084 
  11   2.0000      -1.906172       -51.8696 
  12   2.0000      -0.988393       -26.8955 
  13   2.0000      -0.901286       -24.5252 
  14   2.0000      -0.784413       -21.3450 
  15   2.0000      -0.693663       -18.8755 
  16   2.0000      -0.691639       -18.8205 
  17   2.0000      -0.643010       -17.4972 
  18   2.0000      -0.635226       -17.2854 
  19   2.0000      -0.558646       -15.2015 
  20   2.0000      -0.541540       -14.7360 
  21   2.0000      -0.494032       -13.4433 
  22   2.0000      -0.456714       -12.4278 
  23   2.0000      -0.432587       -11.7713 
  24   2.0000      -0.429637       -11.6910 
  25   2.0000      -0.417938       -11.3727 
  26   2.0000      -0.401197       -10.9171 
  27   2.0000      -0.381719       -10.3871 
  28   2.0000      -0.379210       -10.3188 
  29   2.0000      -0.362539        -9.8652 
  30   2.0000      -0.342027        -9.3070 
  31   2.0000      -0.338208        -9.2031 
  32   2.0000      -0.319494        -8.6939 
  33   2.0000      -0.310315        -8.4441 
  34   2.0000      -0.304351        -8.2818 
  35   2.0000      -0.284580        -7.7438 
  36   2.0000      -0.277776        -7.5587 
  37   2.0000      -0.228097        -6.2068 
  38   2.0000      -0.195961        -5.3324 
  39   2.0000      -0.191217        -5.2033 
  40   2.0000      -0.161957        -4.4071 
  41   0.0000      -0.041910        -1.1404 
  42   0.0000      -0.024927        -0.6783 
  43   0.0000      -0.020210        -0.5499 
  44   0.0000       0.028228         0.7681 
  45   0.0000       0.042537         1.1575 
  46   0.0000       0.045083         1.2268 
  47   0.0000       0.055398         1.5075 
  48   0.0000       0.058438         1.5902 
  49   0.0000       0.065677         1.7872 
  50   0.0000       0.078096         2.1251 
  51   0.0000       0.094127         2.5613 
  52   0.0000       0.100235         2.7275 
  53   0.0000       0.109617         2.9828 
  54   0.0000       0.114762         3.1228 
  55   0.0000       0.117471         3.1966 
  56   0.0000       0.126576         3.4443 
  57   0.0000       0.129999         3.5374 
  58   0.0000       0.131296         3.5727 
  59   0.0000       0.148422         4.0388 
  60   0.0000       0.153340         4.1726 
  61   0.0000       0.179352         4.8804 
  62   0.0000       0.182935         4.9779 
  63   0.0000       0.186534         5.0759 
  64   0.0000       0.198558         5.4030 
  65   0.0000       0.205847         5.6014 
  66   0.0000       0.212783         5.7901 
  67   0.0000       0.223274         6.0756 
  68   0.0000       0.225906         6.1472 
  69   0.0000       0.236280         6.4295 
  70   0.0000       0.238475         6.4892 
  71   0.0000       0.257219         6.9993 
  72   0.0000       0.264193         7.1891 
  73   0.0000       0.268348         7.3021 
  74   0.0000       0.277020         7.5381 
  75   0.0000       0.285585         7.7712 
  76   0.0000       0.300048         8.1647 
  77   0.0000       0.303931         8.2704 
  78   0.0000       0.309696         8.4272 
  79   0.0000       0.326100         8.8736 
  80   0.0000       0.340544         9.2667 
  81   0.0000       0.344222         9.3668 
  82   0.0000       0.350021         9.5245 
  83   0.0000       0.361443         9.8354 
  84   0.0000       0.367941        10.0122 
  85   0.0000       0.380358        10.3501 
  86   0.0000       0.384514        10.4632 
  87   0.0000       0.395809        10.7705 
  88   0.0000       0.402646        10.9566 
  89   0.0000       0.407370        11.0851 
  90   0.0000       0.415838        11.3155 
  91   0.0000       0.420531        11.4432 
  92   0.0000       0.427270        11.6266 
  93   0.0000       0.433528        11.7969 
  94   0.0000       0.442992        12.0544 
  95   0.0000       0.453375        12.3370 
  96   0.0000       0.457114        12.4387 
  97   0.0000       0.460240        12.5238 
  98   0.0000       0.463038        12.5999 
  99   0.0000       0.468401        12.7458 
 100   0.0000       0.472336        12.8529 
 101   0.0000       0.483589        13.1591 
 102   0.0000       0.486919        13.2498 
 103   0.0000       0.499272        13.5859 
 104   0.0000       0.511845        13.9280 
 105   0.0000       0.527501        14.3540 
 106   0.0000       0.547547        14.8995 
 107   0.0000       0.560512        15.2523 
 108   0.0000       0.571795        15.5593 
 109   0.0000       0.582867        15.8606 
 110   0.0000       0.596324        16.2268 
 111   0.0000       0.612825        16.6758 
 112   0.0000       0.614370        16.7179 
 113   0.0000       0.625776        17.0282 
 114   0.0000       0.632676        17.2160 
 115   0.0000       0.643488        17.5102 
 116   0.0000       0.664219        18.0743 
 117   0.0000       0.668450        18.1894 
 118   0.0000       0.673424        18.3248 
 119   0.0000       0.685559        18.6550 
 120   0.0000       0.708715        19.2851 
 121   0.0000       0.713293        19.4097 
 122   0.0000       0.722478        19.6596 
 123   0.0000       0.737168        20.0594 
 124   0.0000       0.745909        20.2972 
 125   0.0000       0.752294        20.4710 
 126   0.0000       0.781539        21.2667 
 127   0.0000       0.791801        21.5460 
 128   0.0000       0.810198        22.0466 
 129   0.0000       0.820490        22.3267 
 130   0.0000       0.829669        22.5764 
 131   0.0000       0.837022        22.7765 
 132   0.0000       0.841392        22.8954 
 133   0.0000       0.855933        23.2911 
 134   0.0000       0.864392        23.5213 
 135   0.0000       0.870395        23.6846 
 136   0.0000       0.904951        24.6250 
 137   0.0000       0.923033        25.1170 
 138   0.0000       0.927775        25.2461 
 139   0.0000       0.952824        25.9277 
 140   0.0000       0.957539        26.0560 
 141   0.0000       0.968873        26.3644 
 142   0.0000       0.975500        26.5447 
 143   0.0000       1.002113        27.2689 
 144   0.0000       1.005798        27.3692 
 145   0.0000       1.041791        28.3486 
 146   0.0000       1.044205        28.4143 
 147   0.0000       1.074839        29.2479 
 148   0.0000       1.084562        29.5124 
 149   0.0000       1.090941        29.6860 
 150   0.0000       1.104712        30.0607 
 151   0.0000       1.124986        30.6124 
 152   0.0000       1.152452        31.3598 
 153   0.0000       1.173332        31.9280 
 154   0.0000       1.196303        32.5531 
 155   0.0000       1.203257        32.7423 
 156   0.0000       1.207820        32.8665 
 157   0.0000       1.232232        33.5307 
 158   0.0000       1.262012        34.3411 
 159   0.0000       1.264848        34.4183 
 160   0.0000       1.281094        34.8603 
 161   0.0000       1.297813        35.3153 
 162   0.0000       1.313770        35.7495 
 163   0.0000       1.330956        36.2172 
 164   0.0000       1.382538        37.6208 
 165   0.0000       1.395097        37.9625 
 166   0.0000       1.405907        38.2567 
 167   0.0000       1.410619        38.3849 
 168   0.0000       1.426088        38.8058 
 169   0.0000       1.436237        39.0820 
 170   0.0000       1.452534        39.5255 
 171   0.0000       1.475350        40.1463 
 172   0.0000       1.480099        40.2755 
 173   0.0000       1.486295        40.4441 
 174   0.0000       1.499272        40.7973 
 175   0.0000       1.508776        41.0559 
 176   0.0000       1.518823        41.3293 
 177   0.0000       1.535100        41.7722 
 178   0.0000       1.550386        42.1882 
 179   0.0000       1.570224        42.7280 
 180   0.0000       1.580713        43.0134 
 181   0.0000       1.611836        43.8603 
 182   0.0000       1.621949        44.1355 
 183   0.0000       1.626783        44.2670 
 184   0.0000       1.637716        44.5645 
 185   0.0000       1.650420        44.9102 
 186   0.0000       1.658362        45.1263 
 187   0.0000       1.673208        45.5303 
 188   0.0000       1.683978        45.8234 
 189   0.0000       1.711352        46.5683 
 190   0.0000       1.725442        46.9517 
 191   0.0000       1.744091        47.4591 
 192   0.0000       1.756610        47.7998 
 193   0.0000       1.761512        47.9332 
 194   0.0000       1.781113        48.4665 
 195   0.0000       1.802606        49.0514 
 196   0.0000       1.818310        49.4787 
 197   0.0000       1.833435        49.8903 
 198   0.0000       1.848280        50.2943 
 199   0.0000       1.851568        50.3837 
 200   0.0000       1.878131        51.1065 
 201   0.0000       1.884199        51.2717 
 202   0.0000       1.907132        51.8957 
 203   0.0000       1.937838        52.7312 
 204   0.0000       1.961428        53.3732 
 205   0.0000       1.968851        53.5752 
 206   0.0000       1.988322        54.1050 
 207   0.0000       2.031025        55.2670 
 208   0.0000       2.034172        55.3526 
 209   0.0000       2.039464        55.4966 
 210   0.0000       2.052315        55.8463 
 211   0.0000       2.064635        56.1816 
 212   0.0000       2.095463        57.0204 
 213   0.0000       2.106878        57.3311 
 214   0.0000       2.123287        57.7776 
 215   0.0000       2.137630        58.1679 
 216   0.0000       2.172800        59.1249 
 217   0.0000       2.192835        59.6701 
 218   0.0000       2.243916        61.0601 
 219   0.0000       2.250712        61.2450 
 220   0.0000       2.256609        61.4054 
 221   0.0000       2.261139        61.5287 
 222   0.0000       2.282206        62.1020 
 223   0.0000       2.317336        63.0579 
 224   0.0000       2.331516        63.4438 
 225   0.0000       2.355683        64.1014 
 226   0.0000       2.375815        64.6492 
 227   0.0000       2.402828        65.3843 
 228   0.0000       2.409591        65.5683 
 229   0.0000       2.418468        65.8099 
 230   0.0000       2.445660        66.5498 
 231   0.0000       2.450909        66.6926 
 232   0.0000       2.487500        67.6883 
 233   0.0000       2.513656        68.4001 
 234   0.0000       2.520224        68.5788 
 235   0.0000       2.531487        68.8853 
 236   0.0000       2.537731        69.0552 
 237   0.0000       2.548688        69.3533 
 238   0.0000       2.560244        69.6678 
 239   0.0000       2.583860        70.3104 
 240   0.0000       2.594951        70.6122 
 241   0.0000       2.605907        70.9103 
 242   0.0000       2.620823        71.3162 
 243   0.0000       2.634139        71.6786 
 244   0.0000       2.640645        71.8556 
 245   0.0000       2.669975        72.6537 
 246   0.0000       2.682365        72.9909 
 247   0.0000       2.683745        73.0284 
 248   0.0000       2.697219        73.3951 
 249   0.0000       2.709784        73.7370 
 250   0.0000       2.723704        74.1157 
 251   0.0000       2.738065        74.5065 
 252   0.0000       2.750071        74.8332 
 253   0.0000       2.775729        75.5314 
 254   0.0000       2.788394        75.8760 
 255   0.0000       2.798088        76.1398 
 256   0.0000       2.815925        76.6252 
 257   0.0000       2.821288        76.7712 
 258   0.0000       2.824709        76.8642 
 259   0.0000       2.840516        77.2944 
 260   0.0000       2.845517        77.4304 
 261   0.0000       2.862085        77.8813 
 262   0.0000       2.872228        78.1573 
 263   0.0000       2.891238        78.6746 
 264   0.0000       2.908918        79.1557 
 265   0.0000       2.951984        80.3276 
 266   0.0000       2.962540        80.6148 
 267   0.0000       2.968025        80.7641 
 268   0.0000       2.985305        81.2343 
 269   0.0000       3.002295        81.6966 
 270   0.0000       3.016612        82.0862 
 271   0.0000       3.031735        82.4977 
 272   0.0000       3.042108        82.7800 
 273   0.0000       3.049083        82.9698 
 274   0.0000       3.089557        84.0711 
 275   0.0000       3.097992        84.3006 
 276   0.0000       3.119866        84.8959 
 277   0.0000       3.126858        85.0861 
 278   0.0000       3.132606        85.2425 
 279   0.0000       3.150736        85.7359 
 280   0.0000       3.166577        86.1669 
 281   0.0000       3.173724        86.3614 
 282   0.0000       3.194559        86.9284 
 283   0.0000       3.198763        87.0428 
 284   0.0000       3.208450        87.3064 
 285   0.0000       3.211506        87.3895 
 286   0.0000       3.225079        87.7588 
 287   0.0000       3.229370        87.8756 
 288   0.0000       3.253323        88.5274 
 289   0.0000       3.265114        88.8483 
 290   0.0000       3.278386        89.2094 
 291   0.0000       3.288450        89.4833 
 292   0.0000       3.302015        89.8524 
 293   0.0000       3.317967        90.2865 
 294   0.0000       3.327147        90.5363 
 295   0.0000       3.346568        91.0648 
 296   0.0000       3.352042        91.2137 
 297   0.0000       3.361879        91.4814 
 298   0.0000       3.375783        91.8597 
 299   0.0000       3.391398        92.2846 
 300   0.0000       3.411588        92.8340 
 301   0.0000       3.413568        92.8879 
 302   0.0000       3.435353        93.4807 
 303   0.0000       3.437643        93.5430 
 304   0.0000       3.450715        93.8987 
 305   0.0000       3.463392        94.2437 
 306   0.0000       3.470482        94.4366 
 307   0.0000       3.492155        95.0264 
 308   0.0000       3.505560        95.3911 
 309   0.0000       3.520998        95.8112 
 310   0.0000       3.530461        96.0687 
 311   0.0000       3.536061        96.2211 
 312   0.0000       3.543283        96.4176 
 313   0.0000       3.560811        96.8946 
 314   0.0000       3.591701        97.7351 
 315   0.0000       3.602262        98.0225 
 316   0.0000       3.628296        98.7309 
 317   0.0000       3.634600        98.9025 
 318   0.0000       3.665418        99.7411 
 319   0.0000       3.686430       100.3129 
 320   0.0000       3.754390       102.1621 
 321   0.0000       3.786285       103.0300 
 322   0.0000       3.806449       103.5787 
 323   0.0000       3.813699       103.7760 
 324   0.0000       3.827121       104.1413 
 325   0.0000       3.856254       104.9340 
 326   0.0000       3.885969       105.7426 
 327   0.0000       3.950988       107.5118 
 328   0.0000       4.008133       109.0668 
 329   0.0000       4.034193       109.7760 
 330   0.0000       4.066337       110.6507 
 331   0.0000       4.097960       111.5112 
 332   0.0000       4.119354       112.0933 
 333   0.0000       4.147757       112.8662 
 334   0.0000       4.163802       113.3028 
 335   0.0000       4.184333       113.8615 
 336   0.0000       4.197339       114.2154 
 337   0.0000       4.212366       114.6243 
 338   0.0000       4.222975       114.9130 
 339   0.0000       4.248574       115.6096 
 340   0.0000       4.254049       115.7586 
 341   0.0000       4.260905       115.9451 
 342   0.0000       4.274842       116.3244 
 343   0.0000       4.296749       116.9205 
 344   0.0000       4.336492       118.0020 
 345   0.0000       4.395632       119.6112 
 346   0.0000       4.445593       120.9707 
 347   0.0000       4.468056       121.5820 
 348   0.0000       4.474883       121.7677 
 349   0.0000       4.497984       122.3964 
 350   0.0000       4.544448       123.6607 
 351   0.0000       4.554178       123.9255 
 352   0.0000       4.613588       125.5421 
 353   0.0000       4.637150       126.1833 
 354   0.0000       4.680922       127.3744 
 355   0.0000       4.714490       128.2878 
 356   0.0000       4.736087       128.8755 
 357   0.0000       4.759407       129.5100 
 358   0.0000       4.798875       130.5840 
 359   0.0000       4.822046       131.2145 
 360   0.0000       4.908590       133.5695 
 361   0.0000       4.977959       135.4571 
 362   0.0000       5.035304       137.0176 
 363   0.0000       5.102483       138.8456 
 364   0.0000       5.186559       141.1334 
 365   0.0000       5.196525       141.4046 
 366   0.0000       5.252352       142.9238 
 367   0.0000       5.321574       144.8074 
 368   0.0000       5.337144       145.2311 
 369   0.0000       5.339907       145.3062 
 370   0.0000       5.379924       146.3952 
 371   0.0000       5.458495       148.5332 
 372   0.0000       5.499145       149.6394 
 373   0.0000       5.557377       151.2239 
 374   0.0000       5.621322       152.9640 
 375   0.0000       5.714084       155.4881 
 376   0.0000       5.721456       155.6887 
 377   0.0000       5.730719       155.9408 
 378   0.0000       5.780029       157.2826 
 379   0.0000       5.859632       159.4487 
 380   0.0000       5.892108       160.3324 
 381   0.0000       5.955459       162.0563 
 382   0.0000       5.969823       162.4471 
 383   0.0000       6.293013       171.2416 
 384   0.0000       6.333202       172.3352 
 385   0.0000       6.381614       173.6526 
 386   0.0000       6.402681       174.2258 
 387   0.0000       6.474079       176.1687 
 388   0.0000       6.516811       177.3314 
 389   0.0000       6.600346       179.6045 
 390   0.0000       6.744621       183.5305 
 391   0.0000       6.799860       185.0336 
 392   0.0000       6.813722       185.4108 
 393   0.0000       7.002892       190.5584 
 394   0.0000       7.094215       193.0434 
 395   0.0000       7.133529       194.1132 
 396   0.0000       7.382236       200.8809 
 397   0.0000      14.647533       398.5796 
 398   0.0000      22.078688       600.7917 
 399   0.0000      22.283083       606.3535 
 400   0.0000      22.334466       607.7517 
 401   0.0000      22.567345       614.0887 
 402   0.0000      22.639082       616.0408 
 403   0.0000      22.716798       618.1555 
 404   0.0000      22.888941       622.8397 
 405   0.0000      23.074007       627.8757 
 406   0.0000      23.265232       633.0792 
 407   0.0000      43.882317      1194.0986 
 408   0.0000      44.134837      1200.9700 

                    ********************************
                    * MULLIKEN POPULATION ANALYSIS *
                    ********************************

-----------------------
MULLIKEN ATOMIC CHARGES
-----------------------
   0 C :    0.297553
   1 C :   -0.276471
   2 C :   -0.130630
   3 C :   -0.253476
   4 C :    0.159904
   5 C :   -0.267612
   6 H :    0.107978
   7 H :    0.137854
   8 H :    0.123725
   9 H :    0.111375
  10 C :    0.324689
  11 C :   -0.531827
  12 H :    0.125904
  13 H :    0.125796
  14 O :   -0.816270
  15 Li:    0.824458
  16 O :   -0.265615
  17 C :   -0.226490
  18 H :    0.138679
  19 H :    0.150998
  20 H :    0.139481
Sum of atomic charges:    0.0000000

--------------------------------
MULLIKEN REDUCED ORBITAL CHARGES
--------------------------------
  0 C s       :     2.985826  s :     2.985826
      pz      :     0.948166  p :     2.528445
      px      :     0.754519
      py      :     0.825760
      dz2     :     0.005982  d :     0.172873
      dxz     :     0.037056
      dyz     :     0.033401
      dx2y2   :     0.049861
      dxy     :     0.046573
      f0      :     0.002249  f :     0.015303
      f+1     :     0.001009
      f-1     :     0.000883
      f+2     :     0.001172
      f-2     :     0.002549
      f+3     :     0.005087
      f-3     :     0.002355
  1 C s       :     3.271487  s :     3.271487
      pz      :     1.047698  p :     2.912758
      px      :     0.949554
      py      :     0.915507
      dz2     :     0.005671  d :     0.084614
      dxz     :     0.008425
      dyz     :     0.017210
      dx2y2   :     0.026457
      dxy     :     0.026850
      f0      :     0.001395  f :     0.007612
      f+1     :     0.000748
      f-1     :     0.000613
      f+2     :     0.000833
      f-2     :     0.000550
      f+3     :     0.002125
      f-3     :     0.001348
  2 C s       :     3.179328  s :     3.179328
      pz      :     0.968955  p :     2.844664
      px      :     0.932155
      py      :     0.943554
      dz2     :     0.004149  d :     0.098764
      dxz     :     0.025996
      dyz     :     0.005402
      dx2y2   :     0.045196
      dxy     :     0.018020
      f0      :     0.001396  f :     0.007875
      f+1     :     0.000509
      f-1     :     0.000798
      f+2     :     0.000279
      f-2     :     0.001310
      f+3     :     0.002295
      f-3     :     0.001288
  3 C s       :     3.275848  s :     3.275848
      pz      :     1.013109  p :     2.872593
      px      :     0.940622
      py      :     0.918862
      dz2     :     0.004356  d :     0.097412
      dxz     :     0.010219
      dyz     :     0.015937
      dx2y2   :     0.024385
      dxy     :     0.042516
      f0      :     0.001346  f :     0.007624
      f+1     :     0.000687
      f-1     :     0.000615
      f+2     :     0.000966
      f-2     :     0.000401
      f+3     :     0.002311
      f-3     :     0.001296
  4 C s       :     3.154244  s :     3.154244
      pz      :     0.922511  p :     2.542258
      px      :     0.811265
      py      :     0.808482
      dz2     :     0.006653  d :     0.133369
      dxz     :     0.021429
      dyz     :     0.023927
      dx2y2   :     0.040570
      dxy     :     0.040791
      f0      :     0.001618  f :     0.010225
      f+1     :     0.000737
      f-1     :     0.000677
      f+2     :     0.001043
      f-2     :     0.001043
      f+3     :     0.003456
      f-3     :     0.001652
  5 C s       :     3.304930  s :     3.304930
      pz      :     1.013716  p :     2.868861
      px      :     0.916086
      py      :     0.939060
      dz2     :     0.004227  d :     0.085857
      dxz     :     0.021107
      dyz     :     0.005529
      dx2y2   :     0.035601
      dxy     :     0.019394
      f0      :     0.001382  f :     0.007963
      f+1     :     0.000587
      f-1     :     0.000768
      f+2     :     0.000369
      f-2     :     0.001059
      f+3     :     0.002312
      f-3     :     0.001487
  6 H s       :     0.871180  s :     0.871180
      pz      :     0.004934  p :     0.020842
      px      :     0.003990
      py      :     0.011918
  7 H s       :     0.841434  s :     0.841434
      pz      :     0.005301  p :     0.020712
      px      :     0.010160
      py      :     0.005252
  8 H s       :     0.856405  s :     0.856405
      pz      :     0.004709  p :     0.019871
      px      :     0.003714
      py      :     0.011448
  9 H s       :     0.868436  s :     0.868436
      pz      :     0.005031  p :     0.020189
      px      :     0.009087
      py      :     0.006071
 10 C s       :     3.148305  s :     3.148305
      pz      :     0.829526  p :     2.344661
      px      :     0.798992
      py      :     0.716142
      dz2     :     0.036107  d :     0.164744
      dxz     :     0.033216
      dyz     :     0.018143
      dx2y2   :     0.031916
      dxy     :     0.045361
      f0      :     0.001257  f :     0.017600
      f+1     :     0.001609
      f-1     :     0.002905
      f+2     :     0.002197
      f-2     :     0.003335
      f+3     :     0.003658
      f-3     :     0.002639
 11 C s       :     3.279096  s :     3.279096
      pz      :     1.153539  p :     3.201859
      px      :     0.950200
      py      :     1.098119
      dz2     :     0.006221  d :     0.045574
      dxz     :     0.007135
      dyz     :     0.007741
      dx2y2   :     0.011926
      dxy     :     0.012551
      f0      :     0.000527  f :     0.005298
      f+1     :     0.001060
      f-1     :     0.000428
      f+2     :     0.001028
      f-2     :     0.000668
      f+3     :     0.000613
      f-3     :     0.000974
 12 H s       :     0.853111  s :     0.853111
      pz      :     0.008124  p :     0.020985
      px      :     0.003757
      py      :     0.009105
 13 H s       :     0.853432  s :     0.853432
      pz      :     0.005725  p :     0.020772
      px      :     0.008354
      py      :     0.006694
 14 O s       :     3.903028  s :     3.903028
      pz      :     1.571148  p :     4.893027
      px      :     1.852804
      py      :     1.469076
      dz2     :     0.003863  d :     0.018508
      dxz     :     0.001873
      dyz     :     0.005012
      dx2y2   :     0.003805
      dxy     :     0.003955
      f0      :     0.000155  f :     0.001707
      f+1     :     0.000029
      f-1     :     0.000441
      f+2     :     0.000396
      f-2     :     0.000256
      f+3     :     0.000216
      f-3     :     0.000215
 15 Lis       :     2.017267  s :     2.017267
      pz      :     0.049316  p :     0.158275
      px      :     0.051728
      py      :     0.057231
 16 O s       :     3.754635  s :     3.754635
      pz      :     1.751532  p :     4.469688
      px      :     1.169809
      py      :     1.548347
      dz2     :     0.004323  d :     0.039309
      dxz     :     0.006957
      dyz     :     0.003916
      dx2y2   :     0.008533
      dxy     :     0.015580
      f0      :     0.000261  f :     0.001983
      f+1     :     0.000381
      f-1     :     0.000169
      f+2     :     0.000064
      f-2     :     0.000242
      f+3     :     0.000403
      f-3     :     0.000462
 17 C s       :     3.244773  s :     3.244773
      pz      :     1.084039  p :     2.872151
      px      :     0.751193
      py      :     1.036918
      dz2     :     0.008998  d :     0.100885
      dxz     :     0.025618
      dyz     :     0.022390
      dx2y2   :     0.016517
      dxy     :     0.027362
      f0      :     0.001027  f :     0.008680
      f+1     :     0.000745
      f-1     :     0.001458
      f+2     :     0.001200
      f-2     :     0.000798
      f+3     :     0.002108
      f-3     :     0.001344
 18 H s       :     0.842896  s :     0.842896
      pz      :     0.008796  p :     0.018425
      px      :     0.003333
      py      :     0.006296
 19 H s       :     0.830069  s :     0.830069
      pz      :     0.004503  p :     0.018933
      px      :     0.006666
      py      :     0.007765
 20 H s       :     0.842089  s :     0.842089
      pz      :     0.008629  p :     0.018430
      px      :     0.003325
      py      :     0.006476


                     *******************************
                     * LOEWDIN POPULATION ANALYSIS *
                     *******************************

----------------------
LOEWDIN ATOMIC CHARGES
----------------------
   0 C :   -0.259163
   1 C :   -0.151845
   2 C :   -0.151217
   3 C :   -0.132534
   4 C :   -0.111474
   5 C :   -0.089407
   6 H :    0.154511
   7 H :    0.150122
   8 H :    0.146158
   9 H :    0.145895
  10 C :   -0.370879
  11 C :   -0.318141
  12 H :    0.112292
  13 H :    0.114524
  14 O :   -0.150147
  15 Li:    0.673992
  16 O :    0.213176
  17 C :   -0.314199
  18 H :    0.111086
  19 H :    0.115885
  20 H :    0.111365

-------------------------------
LOEWDIN REDUCED ORBITAL CHARGES
-------------------------------
  0 C s       :     2.720181  s :     2.720181
      pz      :     0.872232  p :     2.773495
      px      :     0.898560
      py      :     1.002702
      dz2     :     0.046050  d :     0.672817
      dxz     :     0.107420
      dyz     :     0.106654
      dx2y2   :     0.184758
      dxy     :     0.227935
      f0      :     0.005854  f :     0.092670
      f+1     :     0.007052
      f-1     :     0.006475
      f+2     :     0.007833
      f-2     :     0.016449
      f+3     :     0.032602
      f-3     :     0.016406
  1 C s       :     2.766065  s :     2.766065
      pz      :     0.944522  p :     2.975350
      px      :     1.007161
      py      :     1.023667
      dz2     :     0.026074  d :     0.368346
      dxz     :     0.026025
      dyz     :     0.060933
      dx2y2   :     0.126936
      dxy     :     0.128378
      f0      :     0.003050  f :     0.042084
      f+1     :     0.003452
      f-1     :     0.004269
      f+2     :     0.005627
      f-2     :     0.003539
      f+3     :     0.013822
      f-3     :     0.008326
  2 C s       :     2.770595  s :     2.770595
      pz      :     0.888253  p :     2.938982
      px      :     1.065079
      py      :     0.985650
      dz2     :     0.025122  d :     0.398794
      dxz     :     0.091463
      dyz     :     0.012004
      dx2y2   :     0.166942
      dxy     :     0.103263
      f0      :     0.002868  f :     0.042846
      f+1     :     0.004332
      f-1     :     0.003150
      f+2     :     0.001483
      f-2     :     0.008208
      f+3     :     0.014704
      f-3     :     0.008101
  3 C s       :     2.763894  s :     2.763894
      pz      :     0.918426  p :     2.946794
      px      :     1.012386
      py      :     1.015982
      dz2     :     0.025722  d :     0.380129
      dxz     :     0.031742
      dyz     :     0.053760
      dx2y2   :     0.111752
      dxy     :     0.157153
      f0      :     0.002892  f :     0.041716
      f+1     :     0.003541
      f-1     :     0.003898
      f+2     :     0.006286
      f-2     :     0.002286
      f+3     :     0.014585
      f-3     :     0.008227
  4 C s       :     2.717798  s :     2.717798
      pz      :     0.827023  p :     2.831231
      px      :     0.979116
      py      :     1.025093
      dz2     :     0.034261  d :     0.507464
      dxz     :     0.064611
      dyz     :     0.082485
      dx2y2   :     0.158071
      dxy     :     0.168036
      f0      :     0.003666  f :     0.054981
      f+1     :     0.004070
      f-1     :     0.004330
      f+2     :     0.006592
      f-2     :     0.006545
      f+3     :     0.020363
      f-3     :     0.009414
  5 C s       :     2.758201  s :     2.758201
      pz      :     0.914782  p :     2.921807
      px      :     1.020554
      py      :     0.986472
      dz2     :     0.026509  d :     0.367698
      dxz     :     0.073026
      dyz     :     0.013443
      dx2y2   :     0.150648
      dxy     :     0.104071
      f0      :     0.003055  f :     0.041701
      f+1     :     0.004418
      f-1     :     0.003188
      f+2     :     0.001673
      f-2     :     0.007166
      f+3     :     0.013586
      f-3     :     0.008616
  6 H s       :     0.784458  s :     0.784458
      pz      :     0.014234  p :     0.061031
      px      :     0.011148
      py      :     0.035649
  7 H s       :     0.788395  s :     0.788395
      pz      :     0.015352  p :     0.061483
      px      :     0.030151
      py      :     0.015980
  8 H s       :     0.795688  s :     0.795688
      pz      :     0.013269  p :     0.058154
      px      :     0.010882
      py      :     0.034002
  9 H s       :     0.794506  s :     0.794506
      pz      :     0.014431  p :     0.059600
      px      :     0.026974
      py      :     0.018195
 10 C s       :     2.743102  s :     2.743102
      pz      :     0.878324  p :     2.784319
      px      :     1.036694
      py      :     0.869301
      dz2     :     0.134452  d :     0.740111
      dxz     :     0.120591
      dyz     :     0.119402
      dx2y2   :     0.161239
      dxy     :     0.204427
      f0      :     0.009116  f :     0.103346
      f+1     :     0.007898
      f-1     :     0.015361
      f+2     :     0.014768
      f-2     :     0.018474
      f+3     :     0.021433
      f-3     :     0.016297
 11 C s       :     2.858691  s :     2.858691
      pz      :     1.108193  p :     3.224903
      px      :     1.056728
      py      :     1.059982
      dz2     :     0.022834  d :     0.209432
      dxz     :     0.036070
      dyz     :     0.029688
      dx2y2   :     0.059769
      dxy     :     0.061071
      f0      :     0.002743  f :     0.025116
      f+1     :     0.004541
      f-1     :     0.000801
      f+2     :     0.004380
      f-2     :     0.003779
      f+3     :     0.004158
      f-3     :     0.004714
 12 H s       :     0.822673  s :     0.822673
      pz      :     0.024278  p :     0.065035
      px      :     0.011436
      py      :     0.029321
 13 H s       :     0.821721  s :     0.821721
      pz      :     0.017134  p :     0.063754
      px      :     0.025023
      py      :     0.021598
 14 O s       :     3.391505  s :     3.391505
      pz      :     1.531232  p :     4.691568
      px      :     1.672971
      py      :     1.487365
      dz2     :     0.011118  d :     0.062580
      dxz     :     0.006758
      dyz     :     0.017592
      dx2y2   :     0.012717
      dxy     :     0.014396
      f0      :     0.000383  f :     0.004494
      f+1     :     0.000077
      f-1     :     0.001046
      f+2     :     0.001014
      f-2     :     0.000805
      f+3     :     0.000622
      f-3     :     0.000548
 15 Lis       :     2.051279  s :     2.051279
      pz      :     0.088483  p :     0.274729
      px      :     0.074459
      py      :     0.111787
 16 O s       :     3.269456  s :     3.269456
      pz      :     1.628539  p :     4.403572
      px      :     1.244063
      py      :     1.530969
      dz2     :     0.010017  d :     0.107494
      dxz     :     0.020084
      dyz     :     0.007896
      dx2y2   :     0.030685
      dxy     :     0.038812
      f0      :     0.000676  f :     0.006302
      f+1     :     0.000809
      f-1     :     0.000258
      f+2     :     0.000215
      f-2     :     0.000982
      f+3     :     0.001950
      f-3     :     0.001412
 17 C s       :     2.870065  s :     2.870065
      pz      :     1.107755  p :     3.013446
      px      :     0.838195
      py      :     1.067495
      dz2     :     0.047951  d :     0.377652
      dxz     :     0.069981
      dyz     :     0.078380
      dx2y2   :     0.059664
      dxy     :     0.121676
      f0      :     0.005603  f :     0.053036
      f+1     :     0.006923
      f-1     :     0.004385
      f+2     :     0.007720
      f-2     :     0.004369
      f+3     :     0.012598
      f-3     :     0.011438
 18 H s       :     0.827865  s :     0.827865
[...]
     30       0.000031   0.000001  -0.000208  -0.005526   0.000085   0.000541
     31       0.000045   0.000000   0.000170   0.003656  -0.000105  -0.000014
     32      -0.000013   0.000001  -0.000095  -0.002132   0.000063  -0.000061
     33      -0.000147   0.000016   0.002418   0.064296  -0.003803   0.006911
     34      -0.000021  -0.000011  -0.000528  -0.012669  -0.001674   0.007039
     35      -0.000033  -0.000010   0.000613   0.015733  -0.000052  -0.001435
     36       0.000078   0.000001  -0.000073  -0.002429  -0.000444   0.002382
     37      -0.000555   0.000155   0.020672   0.534920  -0.006106  -0.032724
     38       0.000216  -0.000108  -0.007983  -0.206639   0.001892   0.013929
     39       0.000969  -0.000116  -0.026178  -0.694377   0.042798  -0.083484
     40       0.000620  -0.000079  -0.015764  -0.418676   0.024915  -0.047683
     41      -0.000091  -0.000009   0.001690   0.044284  -0.002344   0.004653
     42      -0.000031  -0.000001  -0.000008   0.000055   0.000009  -0.000301
     43      -0.000026  -0.000001  -0.000013  -0.000004  -0.000025  -0.000120
     44       0.000012   0.000002   0.000004  -0.000024   0.000006   0.000036
     45       0.000005  -0.000006  -0.000007   0.000043  -0.000005  -0.000004
     46       0.000013   0.000002  -0.000006  -0.000060   0.000001  -0.000016
     47       0.000007   0.000005   0.000004   0.000048  -0.000001   0.000012
     48      -0.003333   0.000019  -0.000379   0.000040   0.000153   0.000007
     49      -0.000609   0.000036  -0.000230  -0.000007  -0.000129   0.000028
     50       0.000131   0.000257   0.000008  -0.000013   0.000013   0.000008
     51      -0.025804  -0.001125  -0.048081   0.001660  -0.000938  -0.000074
     52      -0.038934  -0.010081   0.077765  -0.002936   0.001559   0.000705
     53       0.003789  -0.094214  -0.008030   0.000320  -0.000134  -0.000089
     54       0.078263   0.076709  -0.030690   0.001343  -0.000519  -0.000487
     55       0.424302   0.459448  -0.120134   0.005204  -0.003588  -0.003696
     56       0.517342   0.521805  -0.167816   0.006860  -0.005082  -0.004560
     57       0.210535  -0.005709   0.621394  -0.021970   0.011485   0.001690
     58      -0.243597   0.003793  -0.712584   0.025803  -0.013933  -0.002778
     59       0.022183  -0.023741   0.065604  -0.002373   0.001303   0.000293
     60       0.057969  -0.057606  -0.025165   0.001123  -0.000349  -0.000350
     61       0.301720  -0.344332  -0.086324   0.003919  -0.002263  -0.002718
     62      -0.587450   0.615847   0.197166  -0.008397   0.005481   0.005478
                 60         61         62    
      0      -0.003328  -0.000519   0.000006
      1      -0.000493   0.003448   0.000048
      2       0.000044  -0.000379   0.000000
      3       0.000811  -0.073804  -0.000780
      4       0.000180  -0.040695  -0.000536
      5      -0.000017   0.004273   0.000036
      6      -0.000865   0.001199   0.000266
      7      -0.008421  -0.019806   0.000596
      8       0.000869   0.002001  -0.000025
      9       0.012501   0.007714  -0.006150
     10      -0.008521  -0.003465   0.004129
     11       0.000631   0.000226  -0.000226
     12       0.002121   0.000025  -0.000517
     13      -0.000021   0.000362  -0.000059
     14       0.000039  -0.000056  -0.000048
     15       0.002179   0.000477  -0.000009
     16       0.083020  -0.001944   0.000184
     17      -0.009447   0.000206   0.000026
     18      -0.027250  -0.000094   0.000069
     19      -0.969960   0.023441  -0.002979
     20       0.111903  -0.002605   0.000237
     21      -0.010912   0.849689   0.009913
     22      -0.005632   0.463685   0.005410
     23       0.000387  -0.048489  -0.000630
     24       0.004382   0.006029  -0.000474
     25       0.092893   0.206317  -0.005788
     26      -0.009251  -0.020650   0.000555
     27      -0.142713  -0.076085   0.075920
     28       0.092669   0.047057  -0.048998
     29      -0.007051  -0.003437   0.004201
     30       0.000189   0.000236   0.002196
     31       0.001269  -0.000137   0.001732
     32      -0.000342   0.000056  -0.000325
     33       0.001748  -0.000961   0.036364
     34       0.000790   0.000074   0.086540
     35       0.000003  -0.000172  -0.027361
     36       0.000467   0.000187   0.025073
     37       0.002323  -0.005911  -0.762227
     38      -0.000542   0.002461   0.298362
     39      -0.022966   0.010134  -0.484355
     40      -0.012980   0.006160  -0.275947
     41       0.000899  -0.000676   0.025227
     42       0.000522  -0.000081  -0.000020
     43      -0.000409  -0.000031  -0.000817
     44       0.000117   0.000012   0.000296
     45       0.000126  -0.000001   0.000013
     46       0.000093   0.000051  -0.000040
     47      -0.000067  -0.000029   0.000025
     48       0.000370  -0.000104   0.000025
     49       0.000055  -0.000395  -0.000016
     50      -0.000004   0.000048   0.000001
     51      -0.000006   0.000661  -0.000053
     52       0.000068  -0.002811   0.000007
     53      -0.000011   0.000314  -0.000011
     54      -0.000469   0.000705   0.000031
     55      -0.000802   0.011646   0.000355
     56      -0.000951   0.014128   0.000378
     57       0.001985  -0.013842   0.000391
     58      -0.001672   0.019905  -0.000440
     59       0.000174  -0.001919   0.000034
     60      -0.000457   0.000388   0.000017
     61      -0.000582   0.008322   0.000228
     62       0.001159  -0.016629  -0.000396


-----------
IR SPECTRUM
-----------

 Mode   freq       eps      Int      T**2         TX        TY        TZ
       cm**-1   L/(mol*cm) km/mol    a.u.
----------------------------------------------------------------------------
  6:     35.79   0.002966   14.99  0.025857  (-0.041837 -0.056088 -0.144778)
  7:     75.25   0.016575   83.76  0.068734  (-0.204821 -0.065703 -0.149883)
  8:     85.04   0.005960   30.12  0.021872  ( 0.139721  0.011783 -0.047020)
  9:    105.26   0.017322   87.54  0.051356  (-0.112794  0.059469  0.187342)
 10:    160.93   0.001564    7.90  0.003033  (-0.037112 -0.025040 -0.032074)
 11:    169.44   0.001946    9.83  0.003584  (-0.049348 -0.011791  0.031773)
 12:    203.39   0.000097    0.49  0.000149  ( 0.002571  0.005508  0.010590)
 13:    262.10   0.000118    0.60  0.000141  (-0.003741  0.004866  0.010160)
 14:    274.53   0.001637    8.28  0.001861  ( 0.038046 -0.019666  0.005199)
 15:    343.44   0.003015   15.24  0.002739  (-0.044867 -0.026631  0.004139)
 16:    394.16   0.001004    5.08  0.000795  ( 0.017847 -0.020714  0.006892)
 17:    429.19   0.000636    3.21  0.000462  ( 0.002082 -0.005995  0.020545)
 18:    475.09   0.002788   14.09  0.001831  (-0.019053 -0.030162  0.023634)
 19:    519.28   0.000825    4.17  0.000496  ( 0.009884  0.019669  0.003330)
 20:    554.45   0.003260   16.47  0.001835  ( 0.004607  0.042162 -0.005989)
 21:    580.12   0.004391   22.19  0.002362  (-0.045930 -0.015578  0.003088)
 22:    660.17   0.000599    3.03  0.000283  (-0.009875  0.000856 -0.013594)
 23:    676.78   0.009345   47.23  0.004309  ( 0.013321 -0.004616 -0.064112)
 24:    679.16   0.011137   56.28  0.005117  ( 0.008133  0.071067 -0.000921)
 25:    703.43   0.002401   12.13  0.001065  ( 0.010459  0.004962 -0.030513)
 26:    733.08   0.021712  109.73  0.009243  ( 0.033216 -0.077439 -0.046288)
 27:    738.76   0.024718  124.91  0.010441  (-0.014764  0.024958 -0.097982)
 28:    777.09   0.005652   28.56  0.002270  ( 0.005675 -0.000454  0.047301)
 29:    865.57   0.000341    1.73  0.000123  ( 0.006000  0.000507 -0.009320)
 30:    869.01   0.003893   19.67  0.001398  ( 0.031285 -0.019959  0.004574)
 31:    883.31   0.005905   29.84  0.002086  (-0.002594 -0.002456 -0.045536)
 32:    946.78   0.000042    0.21  0.000014  (-0.001706  0.000785 -0.003189)
 33:    992.85   0.001410    7.13  0.000443  (-0.019833 -0.007049 -0.000523)
 34:   1027.44   0.019862  100.38  0.006033  ( 0.046408  0.058594 -0.021112)
 35:   1029.22   0.029656  149.87  0.008992  ( 0.088502 -0.028723  0.018284)
 36:   1090.97   0.014254   72.03  0.004077  (-0.045632 -0.040970  0.017788)
 37:   1097.71   0.007288   36.83  0.002072  ( 0.014553 -0.042252  0.008646)
 38:   1149.04   0.000306    1.55  0.000083  ( 0.000407  0.001319  0.009018)
 39:   1172.63   0.002426   12.26  0.000646  ( 0.015162 -0.019680  0.005346)
 40:   1184.63   0.004713   23.82  0.001241  (-0.030372  0.017002 -0.005472)
 41:   1221.95   0.067909  343.19  0.017343  (-0.100814  0.082783 -0.018064)
 42:   1280.97   0.016234   82.04  0.003955  ( 0.060376  0.013478 -0.011312)
 43:   1318.89   0.049316  249.22  0.011669  ( 0.025464  0.098247 -0.036984)
 44:   1351.49   0.008040   40.63  0.001856  ( 0.030238  0.028924 -0.010272)
 45:   1396.33   0.038333  193.72  0.008567  (-0.014145  0.084368 -0.035340)
 46:   1435.12   0.008223   41.56  0.001788  (-0.027961  0.031159 -0.005952)
 47:   1454.01   0.002380   12.03  0.000511  ( 0.018617 -0.011278  0.006087)
 48:   1474.32   0.002224   11.24  0.000471  ( 0.008833 -0.006886 -0.018580)
 49:   1488.19   0.003516   17.77  0.000737  (-0.024604  0.010802 -0.003914)
 50:   1488.66   0.021479  108.54  0.004502  (-0.059303  0.029980 -0.009319)
 51:   1567.07   0.094955  479.86  0.018909  ( 0.100309 -0.088494  0.031876)
 52:   1590.33   0.012534   63.34  0.002459  ( 0.013423 -0.037190  0.029935)
 53:   1604.70   0.018652   94.26  0.003627  ( 0.059327  0.010333 -0.000824)
 54:   2982.36   0.013433   67.88  0.001406  (-0.036004 -0.010392  0.001119)
 55:   3041.50   0.010001   50.54  0.001026  ( 0.000202 -0.003290 -0.031862)
 56:   3106.89   0.006312   31.90  0.000634  (-0.016142  0.019201 -0.002181)
 57:   3110.87   0.003676   18.58  0.000369  ( 0.018801  0.003608  0.001494)
 58:   3130.67   0.004033   20.38  0.000402  (-0.004638 -0.019386  0.002167)
 59:   3154.51   0.004888   24.70  0.000484  ( 0.014560 -0.016464  0.000678)
 60:   3158.04   0.001542    7.79  0.000152  (-0.006750  0.010252 -0.001311)
 61:   3172.40   0.001924    9.72  0.000189  (-0.011171 -0.008002  0.000656)
 62:   3198.10   0.004049   20.46  0.000395  ( 0.006426  0.018022 -0.005388)

* The epsilon (eps) is given for a Dirac delta lineshape.
** The dipole moment derivative (T) already includes vibrational overlap.

The first frequency considered to be a vibration is 6
The total number of vibrations considered is 57


--------------------------
THERMOCHEMISTRY AT 298.15K
--------------------------

Temperature         ... 298.15 K
Pressure            ... 1.00 atm
Total Mass          ... 156.11 AMU

Throughout the following assumptions are being made:
  (1) The electronic state is orbitally nondegenerate
  (2) There are no thermally accessible electronically excited states
  (3) Hindered rotations indicated by low frequency modes are not
      treated as such but are treated as vibrations and this may
      cause some error
  (4) All equations used are the standard statistical mechanics
      equations for an ideal gas
  (5) All vibrations are strictly harmonic

freq.      35.79  E(vib)   ...       0.54 
freq.      75.25  E(vib)   ...       0.49 
freq.      85.04  E(vib)   ...       0.48 
freq.     105.26  E(vib)   ...       0.45 
freq.     160.93  E(vib)   ...       0.39 
freq.     169.44  E(vib)   ...       0.38 
freq.     203.39  E(vib)   ...       0.35 
freq.     262.10  E(vib)   ...       0.29 
freq.     274.53  E(vib)   ...       0.28 
freq.     343.44  E(vib)   ...       0.23 
freq.     394.16  E(vib)   ...       0.20 
freq.     429.19  E(vib)   ...       0.18 
freq.     475.09  E(vib)   ...       0.15 
freq.     519.28  E(vib)   ...       0.13 
freq.     554.45  E(vib)   ...       0.12 
freq.     580.12  E(vib)   ...       0.11 
freq.     660.17  E(vib)   ...       0.08 
freq.     676.78  E(vib)   ...       0.08 
freq.     679.16  E(vib)   ...       0.08 
freq.     703.43  E(vib)   ...       0.07 
freq.     733.08  E(vib)   ...       0.06 
freq.     738.76  E(vib)   ...       0.06 
freq.     777.09  E(vib)   ...       0.05 
freq.     865.57  E(vib)   ...       0.04 
freq.     869.01  E(vib)   ...       0.04 
freq.     883.31  E(vib)   ...       0.04 
freq.     946.78  E(vib)   ...       0.03 
freq.     992.85  E(vib)   ...       0.02 
freq.    1027.44  E(vib)   ...       0.02 
freq.    1029.22  E(vib)   ...       0.02 
freq.    1090.97  E(vib)   ...       0.02 
freq.    1097.71  E(vib)   ...       0.02 
freq.    1149.04  E(vib)   ...       0.01 
freq.    1172.63  E(vib)   ...       0.01 
freq.    1184.63  E(vib)   ...       0.01 
freq.    1221.95  E(vib)   ...       0.01 
freq.    1280.97  E(vib)   ...       0.01 
freq.    1318.89  E(vib)   ...       0.01 
freq.    1351.49  E(vib)   ...       0.01 
freq.    1396.33  E(vib)   ...       0.00 
freq.    1435.12  E(vib)   ...       0.00 
freq.    1454.01  E(vib)   ...       0.00 
freq.    1474.32  E(vib)   ...       0.00 
freq.    1488.19  E(vib)   ...       0.00 
freq.    1488.66  E(vib)   ...       0.00 
freq.    1567.07  E(vib)   ...       0.00 
freq.    1590.33  E(vib)   ...       0.00 
freq.    1604.70  E(vib)   ...       0.00 
freq.    2982.36  E(vib)   ...       0.00 
freq.    3041.50  E(vib)   ...       0.00 
freq.    3106.89  E(vib)   ...       0.00 
freq.    3110.87  E(vib)   ...       0.00 
freq.    3130.67  E(vib)   ...       0.00 
freq.    3154.51  E(vib)   ...       0.00 
freq.    3158.04  E(vib)   ...       0.00 
freq.    3172.40  E(vib)   ...       0.00 
freq.    3198.10  E(vib)   ...       0.00 

------------
INNER ENERGY
------------

The inner energy is: U= E(el) + E(ZPE) + E(vib) + E(rot) + E(trans)
    E(el)   - is the total energy from the electronic structure calculation
              = E(kin-el) + E(nuc-el) + E(el-el) + E(nuc-nuc)
    E(ZPE)  - the the zero temperature vibrational energy from the frequency calculation
    E(vib)  - the the finite temperature correction to E(ZPE) due to population
              of excited vibrational states
    E(rot)  - is the rotational thermal energy
    E(trans)- is the translational thermal energy

Summary of contributions to the inner energy U:
Electronic energy                ...   -506.68461026 Eh
Zero point energy                ...      0.15644734 Eh      98.17 kcal/mol
Thermal vibrational correction   ...      0.00892457 Eh       5.60 kcal/mol
Thermal rotational correction    ...      0.00141627 Eh       0.89 kcal/mol
Thermal translational correction ...      0.00141627 Eh       0.89 kcal/mol
-----------------------------------------------------------------------
Total thermal energy                   -506.51640580 Eh


Summary of corrections to the electronic energy:
(perhaps to be used in another calculation)
Total thermal correction                  0.01175711 Eh       7.38 kcal/mol
Non-thermal (ZPE) correction              0.15644734 Eh      98.17 kcal/mol
-----------------------------------------------------------------------
Total correction                          0.16820446 Eh     105.55 kcal/mol


--------
ENTHALPY
--------

The enthalpy is H = U + kB*T
                kB is Boltzmann's constant
Total free energy                 ...   -506.51640580 Eh 
Thermal Enthalpy correction       ...      0.00094421 Eh       0.59 kcal/mol
-----------------------------------------------------------------------
Total Enthalpy                    ...   -506.51546160 Eh


Note: Only C1 symmetry has been detected, increase convergence thresholds 
      if your molecule has a higher symmetry. Symmetry factor of 1.0 is   
      used for the rotational entropy correction. 
 

Note: Rotational entropy computed according to Herzberg 
Infrared and Raman Spectra, Chapter V,1, Van Nostrand Reinhold, 1945 
Point Group:  C1, Symmetry Number:   1  
Rotational constants in cm-1:     0.060471     0.021130     0.015833 

Vibrational entropy computed according to the QRRHO of S. Grimme
Chem.Eur.J. 2012 18 9955


-------
ENTROPY
-------

The entropy contributions are T*S = T*(S(el)+S(vib)+S(rot)+S(trans))
     S(el)   - electronic entropy
     S(vib)  - vibrational entropy
     S(rot)  - rotational entropy
     S(trans)- translational entropy
The entropies will be listed as multiplied by the temperature to get
units of energy

Electronic entropy                ...      0.00000000 Eh      0.00 kcal/mol
Vibrational entropy               ...      0.01555973 Eh      9.76 kcal/mol
Rotational entropy                ...      0.01461333 Eh      9.17 kcal/mol
Translational entropy             ...      0.01950204 Eh     12.24 kcal/mol
-----------------------------------------------------------------------
Final entropy term                ...      0.04967509 Eh     31.17 kcal/mol

In case the symmetry of your molecule has not been determined correctly
or in case you have a reason to use a different symmetry number we print 
out the resulting rotational entropy values for sn=1,12 :
 --------------------------------------------------------
|  sn= 1 | S(rot)=       0.01461333 Eh      9.17 kcal/mol|
|  sn= 2 | S(rot)=       0.01395887 Eh      8.76 kcal/mol|
|  sn= 3 | S(rot)=       0.01357604 Eh      8.52 kcal/mol|
|  sn= 4 | S(rot)=       0.01330441 Eh      8.35 kcal/mol|
|  sn= 5 | S(rot)=       0.01309373 Eh      8.22 kcal/mol|
|  sn= 6 | S(rot)=       0.01292158 Eh      8.11 kcal/mol|
|  sn= 7 | S(rot)=       0.01277604 Eh      8.02 kcal/mol|
|  sn= 8 | S(rot)=       0.01264996 Eh      7.94 kcal/mol|
|  sn= 9 | S(rot)=       0.01253875 Eh      7.87 kcal/mol|
|  sn=10 | S(rot)=       0.01243927 Eh      7.81 kcal/mol|
|  sn=11 | S(rot)=       0.01234928 Eh      7.75 kcal/mol|
|  sn=12 | S(rot)=       0.01226713 Eh      7.70 kcal/mol|
 --------------------------------------------------------


-------------------
GIBBS FREE ENERGY
-------------------

The Gibbs free energy is G = H - T*S

Total enthalpy                    ...   -506.51546160 Eh 
Total entropy correction          ...     -0.04967509 Eh    -31.17 kcal/mol
-----------------------------------------------------------------------
Final Gibbs free energy         ...   -506.56513669 Eh

For completeness - the Gibbs free energy minus the electronic energy
G-E(el)                           ...      0.11947357 Eh     74.97 kcal/mol



Timings for individual modules:

Sum of individual times         ...     9263.941 sec (= 154.399 min)
GTO integral calculation        ...       21.111 sec (=   0.352 min)   0.2 %
SCF iterations                  ...     1009.426 sec (=  16.824 min)  10.9 %
SCF Gradient evaluation         ...      376.627 sec (=   6.277 min)   4.1 %
Geometry relaxation             ...        1.605 sec (=   0.027 min)   0.0 %
Numerical frequency calculation ...     7855.172 sec (= 130.920 min)  84.8 %
                             ****ORCA TERMINATED NORMALLY****
TOTAL RUN TIME: 0 days 2 hours 33 minutes 47 seconds 946 msec
‘Keton-Li_freqopt.cpcm’ -> ‘/home/rothe/Calc/Li_Path/THF/Keton-Li/Keton-Li_freqopt.cpcm’
‘Keton-Li_freqopt.densities’ -> ‘/home/rothe/Calc/Li_Path/THF/Keton-Li/Keton-Li_freqopt.densities’
‘Keton-Li_freqopt.engrad’ -> ‘/home/rothe/Calc/Li_Path/THF/Keton-Li/Keton-Li_freqopt.engrad’
‘Keton-Li_freqopt.err’ -> ‘/home/rothe/Calc/Li_Path/THF/Keton-Li/Keton-Li_freqopt.err’
‘Keton-Li_freqopt.gbw’ -> ‘/home/rothe/Calc/Li_Path/THF/Keton-Li/Keton-Li_freqopt.gbw’
‘Keton-Li_freqopt.hess’ -> ‘/home/rothe/Calc/Li_Path/THF/Keton-Li/Keton-Li_freqopt.hess’
‘Keton-Li_freqopt.hess.v006.xyz’ -> ‘/home/rothe/Calc/Li_Path/THF/Keton-Li/Keton-Li_freqopt.hess.v006.xyz’
‘Keton-Li_freqopt.job’ -> ‘/home/rothe/Calc/Li_Path/THF/Keton-Li/Keton-Li_freqopt.job’
‘Keton-Li_freqopt.opt’ -> ‘/home/rothe/Calc/Li_Path/THF/Keton-Li/Keton-Li_freqopt.opt’
‘Keton-Li_freqopt_property.txt’ -> ‘/home/rothe/Calc/Li_Path/THF/Keton-Li/Keton-Li_freqopt_property.txt’
‘Keton-Li_freqopt_trj.xyz’ -> ‘/home/rothe/Calc/Li_Path/THF/Keton-Li/Keton-Li_freqopt_trj.xyz’
‘Keton-Li_freqopt.xyz’ -> ‘/home/rothe/Calc/Li_Path/THF/Keton-Li/Keton-Li_freqopt.xyz’
