! Job execution by suborca V 5.02 !
Job started from clu.thch.uni-bonn.de, running /software/cluster/orca_5_0_2_linux_x86-64_openmpi411/orca from /software/cluster/orca_5_0_2_linux_x86-64_openmpi411 on boar231 in /tmp1/rothe/Keton-Li_sp__s02ngw
Going to copy the following really necessary files:  

                                 *****************
                                 * O   R   C   A *
                                 *****************

                                            #,                                       
                                            ###                                      
                                            ####                                     
                                            #####                                    
                                            ######                                   
                                           ########,                                 
                                     ,,################,,,,,                         
                               ,,#################################,,                 
                          ,,##########################################,,             
                       ,#########################################, ''#####,          
                    ,#############################################,,   '####,        
                  ,##################################################,,,,####,       
                ,###########''''           ''''###############################       
              ,#####''   ,,,,##########,,,,          '''####'''          '####       
            ,##' ,,,,###########################,,,                        '##       
           ' ,,###''''                  '''############,,,                           
         ,,##''                                '''############,,,,        ,,,,,,###''
      ,#''                                            '''#######################'''  
     '                                                          ''''####''''         
             ,#######,   #######,   ,#######,      ##                                
            ,#'     '#,  ##    ##  ,#'     '#,    #''#        ######   ,####,        
            ##       ##  ##   ,#'  ##            #'  '#       #        #'  '#        
            ##       ##  #######   ##           ,######,      #####,   #    #        
            '#,     ,#'  ##    ##  '#,     ,#' ,#      #,         ##   #,  ,#        
             '#######'   ##     ##  '#######'  #'      '#     #####' # '####'        



                  #######################################################
                  #                        -***-                        #
                  #          Department of theory and spectroscopy      #
                  #    Directorship and core code : Frank Neese         #
                  #        Max Planck Institute fuer Kohlenforschung    #
                  #                Kaiser Wilhelm Platz 1               #
                  #                 D-45470 Muelheim/Ruhr               #
                  #                      Germany                        #
                  #                                                     #
                  #                  All rights reserved                #
                  #                        -***-                        #
                  #######################################################


                         Program Version 5.0.2 -  RELEASE  -


 With contributions from (in alphabetic order):
   Daniel Aravena         : Magnetic Suceptibility
   Michael Atanasov       : Ab Initio Ligand Field Theory (pilot matlab implementation)
   Alexander A. Auer      : GIAO ZORA, VPT2 properties, NMR spectrum
   Ute Becker             : Parallelization
   Giovanni Bistoni       : ED, misc. LED, open-shell LED, HFLD
   Martin Brehm           : Molecular dynamics
   Dmytro Bykov           : SCF Hessian
   Vijay G. Chilkuri      : MRCI spin determinant printing, contributions to CSF-ICE
   Dipayan Datta          : RHF DLPNO-CCSD density
   Achintya Kumar Dutta   : EOM-CC, STEOM-CC
   Dmitry Ganyushin       : Spin-Orbit,Spin-Spin,Magnetic field MRCI
   Miquel Garcia          : C-PCM and meta-GGA Hessian, CC/C-PCM, Gaussian charge scheme
   Yang Guo               : DLPNO-NEVPT2, F12-NEVPT2, CIM, IAO-localization
   Andreas Hansen         : Spin unrestricted coupled pair/coupled cluster methods
   Benjamin Helmich-Paris : MC-RPA, TRAH-SCF, COSX integrals
   Lee Huntington         : MR-EOM, pCC
   Robert Izsak           : Overlap fitted RIJCOSX, COSX-SCS-MP3, EOM
   Marcus Kettner         : VPT2
   Christian Kollmar      : KDIIS, OOCD, Brueckner-CCSD(T), CCSD density, CASPT2, CASPT2-K
   Simone Kossmann        : Meta GGA functionals, TD-DFT gradient, OOMP2, MP2 Hessian
   Martin Krupicka        : Initial AUTO-CI
   Lucas Lang             : DCDCAS
   Marvin Lechner         : AUTO-CI (C++ implementation), FIC-MRCC
   Dagmar Lenk            : GEPOL surface, SMD
   Dimitrios Liakos       : Extrapolation schemes; Compound Job, initial MDCI parallelization
   Dimitrios Manganas     : Further ROCIS development; embedding schemes
   Dimitrios Pantazis     : SARC Basis sets
   Anastasios Papadopoulos: AUTO-CI, single reference methods and gradients
   Taras Petrenko         : DFT Hessian,TD-DFT gradient, ASA, ECA, R-Raman, ABS, FL, XAS/XES, NRVS
   Peter Pinski           : DLPNO-MP2, DLPNO-MP2 Gradient
   Christoph Reimann      : Effective Core Potentials
   Marius Retegan         : Local ZFS, SOC
   Christoph Riplinger    : Optimizer, TS searches, QM/MM, DLPNO-CCSD(T), (RO)-DLPNO pert. Triples
   Tobias Risthaus        : Range-separated hybrids, TD-DFT gradient, RPA, STAB
   Michael Roemelt        : Original ROCIS implementation
   Masaaki Saitow         : Open-shell DLPNO-CCSD energy and density
   Barbara Sandhoefer     : DKH picture change effects
   Avijit Sen             : IP-ROCIS
   Kantharuban Sivalingam : CASSCF convergence, NEVPT2, FIC-MRCI
   Bernardo de Souza      : ESD, SOC TD-DFT
   Georgi Stoychev        : AutoAux, RI-MP2 NMR, DLPNO-MP2 response
   Willem Van den Heuvel  : Paramagnetic NMR
   Boris Wezisla          : Elementary symmetry handling
   Frank Wennmohs         : Technical directorship


 We gratefully acknowledge several colleagues who have allowed us to
 interface, adapt or use parts of their codes:
   Stefan Grimme, W. Hujo, H. Kruse, P. Pracht,  : VdW corrections, initial TS optimization,
                  C. Bannwarth, S. Ehlert          DFT functionals, gCP, sTDA/sTD-DF
   Ed Valeev, F. Pavosevic, A. Kumar             : LibInt (2-el integral package), F12 methods
   Garnet Chan, S. Sharma, J. Yang, R. Olivares  : DMRG
   Ulf Ekstrom                                   : XCFun DFT Library
   Mihaly Kallay                                 : mrcc  (arbitrary order and MRCC methods)
   Jiri Pittner, Ondrej Demel                    : Mk-CCSD
   Frank Weinhold                                : gennbo (NPA and NBO analysis)
   Christopher J. Cramer and Donald G. Truhlar   : smd solvation model
   Lars Goerigk                                  : TD-DFT with DH, B97 family of functionals
   V. Asgeirsson, H. Jonsson                     : NEB implementation
   FAccTs GmbH                                   : IRC, NEB, NEB-TS, DLPNO-Multilevel, CI-OPT
                                                   MM, QMMM, 2- and 3-layer-ONIOM, Crystal-QMMM,
                                                   LR-CPCM, SF, NACMEs, symmetry and pop. for TD-DFT,
                                                   nearIR, NL-DFT gradient (VV10), updates on ESD,
                                                   ML-optimized integration grids
   S Lehtola, MJT Oliveira, MAL Marques          : LibXC Library
   Liviu Ungur et al                             : ANISO software


 Your calculation uses the libint2 library for the computation of 2-el integrals
 For citations please refer to: http://libint.valeyev.net

 Your ORCA version has been built with support for libXC version: 5.1.0
 For citations please refer to: https://tddft.org/programs/libxc/

 This ORCA versions uses:
   CBLAS   interface :  Fast vector & matrix operations
   LAPACKE interface :  Fast linear algebra routines
   SCALAPACK package :  Parallel linear algebra routines
   Shared memory     :  Shared parallel matrices
   BLAS/LAPACK       :  OpenBLAS 0.3.15  USE64BITINT DYNAMIC_ARCH NO_AFFINITY Barcelona SINGLE_THREADED
        Core in use  :  Barcelona
   Copyright (c) 2011-2014, The OpenBLAS Project


Your calculation utilizes the atom-pairwise dispersion correction
with the Becke-Johnson damping scheme (D3BJ)
Cite in your paper:
S.Grimme, S.Ehrlich, L.Goerigk, J Comput Chem, (2011), 32, 1456–1465 
S.Grimme, J.Antony, S.Ehrlich and H.Krieg, J.Chem.Phys., 132, (2010), 154104 
   

================================================================================

----- Orbital basis set information -----
Your calculation utilizes the basis: def2-QZVP
   F. Weigend and R. Ahlrichs, Phys. Chem. Chem. Phys. 7, 3297 (2005).

----- AuxJK basis set information -----
Your calculation utilizes the auxiliary basis: def2/JK
   H-Ba, Hf-Rn: F. Weigend, J. Comput. Chem. 29, 167 (2008).

================================================================================
                                        WARNINGS
                       Please study these warnings very carefully!
================================================================================


INFO   : the flag for use of the SHARK integral package has been found!

================================================================================
                                       INPUT FILE
================================================================================
NAME = Keton-Li_sp.inp
|  1> ! PW6B95 D3BJ def2-QZVP RIJK def2/JK tightSCF CPCM(THF)
|  2> ! sp Pal4
|  3> 
|  4> *xyz 0 1  
|  5> C   -3.21583129068282      1.49898317902505     -0.05435336789595
|  6>   C   -3.28021957724449      0.11110628456426      0.10155022923401
|  7>   C   -2.08101805543928     -0.60968763641377      0.17783287056523
|  8>   C   -0.84777523844178      0.02660521636685      0.10867698123177
|  9>   C   -0.77930577521364      1.42630061463212     -0.04335865945670
| 10>   C   -1.97485083252073      2.14381868043246     -0.13119864384363
| 11>   H   -1.94356821267785      3.22150798904297     -0.25464169062316
| 12>   H   -4.22972804229089     -0.40882206316846      0.15570951280416
| 13>   H   -2.12389942957123     -1.69052733162748      0.28639860439794
| 14>   H   0.06245769387956     -0.56228306788821      0.15125672985333
| 15>   C   0.52072678037498      2.17572593175014     -0.12223656879966
| 16>   C   1.68642271404132      1.59314133940731      0.27662117966652
| 17>   H   1.71708587477121      0.58513230793081      0.67264749313652
| 18>   H   2.61981720889267      2.14600026656276      0.21987266380935
| 19>   O   0.44316840980918      3.41069386407169     -0.57447047540763
| 20>   Li  0.33175045913969      4.96225131505443     -1.15214911215545
| 21>   O   -4.31695348237428      2.31661682468411     -0.14276404978643
| 22>   C   -5.60537149508282      1.68765860493690     -0.05549078651557
| 23>   H   -5.75037612612436      0.97900298522990     -0.87940105758433
| 24>   H   -6.33088594457833      2.49807699702272     -0.12980618022464
| 25>   H   -5.72069702496605      1.16799288698341      0.90280186629432
| 26> *
| 27> 
| 28>                          ****END OF INPUT****
================================================================================

                       ****************************
                       * Single Point Calculation *
                       ****************************

---------------------------------
CARTESIAN COORDINATES (ANGSTROEM)
---------------------------------
  C     -3.215831    1.498983   -0.054353
  C     -3.280220    0.111106    0.101550
  C     -2.081018   -0.609688    0.177833
  C     -0.847775    0.026605    0.108677
  C     -0.779306    1.426301   -0.043359
  C     -1.974851    2.143819   -0.131199
  H     -1.943568    3.221508   -0.254642
  H     -4.229728   -0.408822    0.155710
  H     -2.123899   -1.690527    0.286399
  H      0.062458   -0.562283    0.151257
  C      0.520727    2.175726   -0.122237
  C      1.686423    1.593141    0.276621
  H      1.717086    0.585132    0.672647
  H      2.619817    2.146000    0.219873
  O      0.443168    3.410694   -0.574470
  Li     0.331750    4.962251   -1.152149
  O     -4.316953    2.316617   -0.142764
  C     -5.605371    1.687659   -0.055491
  H     -5.750376    0.979003   -0.879401
  H     -6.330886    2.498077   -0.129806
  H     -5.720697    1.167993    0.902802

----------------------------
CARTESIAN COORDINATES (A.U.)
----------------------------
  NO LB      ZA    FRAG     MASS         X           Y           Z
   0 C     6.0000    0    12.011   -6.077040    2.832668   -0.102713
   1 C     6.0000    0    12.011   -6.198717    0.209960    0.191902
   2 C     6.0000    0    12.011   -3.932554   -1.152143    0.336055
   3 C     6.0000    0    12.011   -1.602063    0.050277    0.205370
   4 C     6.0000    0    12.011   -1.472674    2.695318   -0.081936
   5 C     6.0000    0    12.011   -3.731927    4.051230   -0.247930
   6 H     1.0000    0     1.008   -3.672812    6.087768   -0.481203
   7 H     1.0000    0     1.008   -7.993028   -0.772562    0.294248
   8 H     1.0000    0     1.008   -4.013588   -3.194634    0.541215
   9 H     1.0000    0     1.008    0.118028   -1.062561    0.285834
  10 C     6.0000    0    12.011    0.984031    4.111526   -0.230994
  11 C     6.0000    0    12.011    3.186877    3.010601    0.522738
  12 H     1.0000    0     1.008    3.244822    1.105740    1.271120
  13 H     1.0000    0     1.008    4.950737    4.055353    0.415499
  14 O     8.0000    0    15.999    0.837467    6.445277   -1.085592
  15 Li    3.0000    0     6.941    0.626918    9.377296   -2.177246
  16 O     8.0000    0    15.999   -8.157860    4.377771   -0.269785
  17 C     6.0000    0    12.011  -10.592617    3.189213   -0.104862
  18 H     1.0000    0     1.008  -10.866636    1.850048   -1.661827
  19 H     1.0000    0     1.008  -11.963641    4.720681   -0.245298
  20 H     1.0000    0     1.008  -10.810551    2.207187    1.706048

--------------------------------
INTERNAL COORDINATES (ANGSTROEM)
--------------------------------
 C      0   0   0     0.000000000000     0.00000000     0.00000000
 C      1   0   0     1.398089431053     0.00000000     0.00000000
 C      2   1   0     1.401230604785   118.50917290     0.00000000
 C      3   2   1     1.389438367545   121.42170030     0.33117833
 C      4   3   2     1.409592179093   120.21301194   359.90626027
 C      5   4   3     1.397095566401   118.37155378   359.53916801
 H      6   5   4     1.085187096309   119.50593482   180.37459266
 H      2   1   3     1.083893463385   121.47311001   180.47817304
 H      3   2   1     1.087124545560   118.88844404   180.76690306
 H      4   3   2     1.084954578500   119.61232414   181.19584721
 C      5   4   3     1.502645891789   122.88274700   179.88405601
 C     11   5   4     1.362842368182   120.76030256   343.57016826
 H     12  11   5     1.083447865808   121.93095452   359.19301150
 H     12  11   5     1.086323464906   120.13812145   180.30632177
 O     11   5   4     1.317450796422   115.75977894   164.55676156
 Li    15  11   5     1.659354419883   179.43353022   334.80893202
 O      1   2   3     1.374340317469   124.11508420   179.95526193
 C     17   1   2     1.436393414125   117.01670317     0.57053798
 H     18  17   1     1.096379161211   110.85458468   298.08594623
 H     18  17   1     1.090262337422   105.50202499   179.10031812
 H     18  17   1     1.096210401651   110.79693209    60.09159688

---------------------------
INTERNAL COORDINATES (A.U.)
---------------------------
 C      0   0   0     0.000000000000     0.00000000     0.00000000
 C      1   0   0     2.642006135420     0.00000000     0.00000000
 C      2   1   0     2.647942093513   118.50917290     0.00000000
 C      3   2   1     2.625657994622   121.42170030     0.33117833
 C      4   3   2     2.663743179002   120.21301194   359.90626027
 C      5   4   3     2.640128003414   118.37155378   359.53916801
 H      6   5   4     2.050706416089   119.50593482   180.37459266
 H      2   1   3     2.048261804144   121.47311001   180.47817304
 H      3   2   1     2.054367664573   118.88844404   180.76690306
 H      4   3   2     2.050267021109   119.61232414   181.19584721
 C      5   4   3     2.839589211743   122.88274700   179.88405601
 C     11   5   4     2.575398839569   120.76030256   343.57016826
 H     12  11   5     2.047419746759   121.93095452   359.19301150
 H     12  11   5     2.052853841526   120.13812145   180.30632177
 O     11   5   4     2.489621200154   115.75977894   164.55676156
 Li    15  11   5     3.135725412691   179.43353022   334.80893202
 O      1   2   3     2.597126814823   124.11508420   179.95526193
 C     17   1   2     2.714390173264   117.01670317     0.57053798
 H     18  17   1     2.071856353628   110.85458468   298.08594623
 H     18  17   1     2.060297231856   105.50202499   179.10031812
 H     18  17   1     2.071537444277   110.79693209    60.09159688

---------------------
BASIS SET INFORMATION
---------------------
There are 4 groups of distinct atoms

 Group   1 Type C   : 15s8p3d2f1g contracted to 7s4p3d2f1g pattern {8211111/5111/111/11/1}
 Group   2 Type H   : 7s3p2d1f contracted to 4s3p2d1f pattern {4111/111/11/1}
 Group   3 Type O   : 15s8p3d2f1g contracted to 7s4p3d2f1g pattern {8211111/5111/111/11/1}
 Group   4 Type Li  : 15s6p2d1f contracted to 6s4p2d1f pattern {921111/3111/11/1}

Atom   0C    basis set group =>   1
Atom   1C    basis set group =>   1
Atom   2C    basis set group =>   1
Atom   3C    basis set group =>   1
Atom   4C    basis set group =>   1
Atom   5C    basis set group =>   1
Atom   6H    basis set group =>   2
Atom   7H    basis set group =>   2
Atom   8H    basis set group =>   2
Atom   9H    basis set group =>   2
Atom  10C    basis set group =>   1
Atom  11C    basis set group =>   1
Atom  12H    basis set group =>   2
Atom  13H    basis set group =>   2
Atom  14O    basis set group =>   3
Atom  15Li   basis set group =>   4
Atom  16O    basis set group =>   3
Atom  17C    basis set group =>   1
Atom  18H    basis set group =>   2
Atom  19H    basis set group =>   2
Atom  20H    basis set group =>   2
----------------------------------
AUXILIARY/JK BASIS SET INFORMATION
----------------------------------
There are 4 groups of distinct atoms

 Group   1 Type C   : 14s10p6d2f1g contracted to 10s8p5d1f1g pattern {5111111111/31111111/21111/2/1}
 Group   2 Type H   : 4s2p2d contracted to 2s2p2d pattern {31/11/11}
 Group   3 Type O   : 14s10p6d2f1g contracted to 10s8p4d2f1g pattern {5111111111/31111111/3111/11/1}
 Group   4 Type Li  : 10s7p4d2f contracted to 7s5p3d2f pattern {4111111/31111/211/11}

Atom   0C    basis set group =>   1
Atom   1C    basis set group =>   1
Atom   2C    basis set group =>   1
Atom   3C    basis set group =>   1
Atom   4C    basis set group =>   1
Atom   5C    basis set group =>   1
Atom   6H    basis set group =>   2
Atom   7H    basis set group =>   2
Atom   8H    basis set group =>   2
Atom   9H    basis set group =>   2
Atom  10C    basis set group =>   1
Atom  11C    basis set group =>   1
Atom  12H    basis set group =>   2
Atom  13H    basis set group =>   2
Atom  14O    basis set group =>   3
Atom  15Li   basis set group =>   4
Atom  16O    basis set group =>   3
Atom  17C    basis set group =>   1
Atom  18H    basis set group =>   2
Atom  19H    basis set group =>   2
Atom  20H    basis set group =>   2


           ************************************************************
           *        Program running with 4 parallel MPI-processes     *
           *              working on a common directory               *
           ************************************************************
------------------------------------------------------------------------------
                           ORCA GTO INTEGRAL CALCULATION
                           -- RI-GTO INTEGRALS CHOSEN --
------------------------------------------------------------------------------
------------------------------------------------------------------------------
                   ___                                                        
                  /   \      - P O W E R E D   B Y -                         
                 /     \                                                     
                 |  |  |   _    _      __       _____    __    __             
                 |  |  |  | |  | |    /  \     |  _  \  |  |  /  |          
                  \  \/   | |  | |   /    \    | | | |  |  | /  /          
                 / \  \   | |__| |  /  /\  \   | |_| |  |  |/  /          
                |  |  |   |  __  | /  /__\  \  |    /   |      \           
                |  |  |   | |  | | |   __   |  |    \   |  |\   \          
                \     /   | |  | | |  |  |  |  | |\  \  |  | \   \       
                 \___/    |_|  |_| |__|  |__|  |_| \__\ |__|  \__/        
                                                                              
                      - O R C A' S   B I G   F R I E N D -                    
                                      &                                       
                       - I N T E G R A L  F E E D E R -                       
                                                                              
 v1 FN, 2020, v2 2021                                                         
------------------------------------------------------------------------------


Reading SHARK input file Keton-Li_sp.SHARKINP.tmp ... ok
----------------------
SHARK INTEGRAL PACKAGE
----------------------

Number of atoms                             ...     21
Number of basis functions                   ...    932
Number of shells                            ...    290
Maximum angular momentum                    ...      4
Integral batch strategy                     ... SHARK/LIBINT Hybrid
RI-J (if used) integral strategy            ... SPLIT-RIJ (Revised 2003 algorithm where possible)
Printlevel                                  ...      1
Contraction scheme used                     ... SEGMENTED contraction
Coulomb Range Separation                    ... NOT USED
Exchange Range Separation                   ... NOT USED
Finite Nucleus Model                        ... NOT USED
Auxiliary Coulomb fitting basis             ... NOT available
Auxiliary J/K fitting basis                 ... AVAILABLE
   # of basis functions in Aux-JK           ...   1042
   # of shells in Aux-JK                    ...    346
   Maximum angular momentum in Aux-JK       ...      4
Auxiliary Correlation fitting basis         ... NOT available
Auxiliary 'external' fitting basis          ... NOT available
Integral threshold                          ...     2.500000e-11
Primitive cut-off                           ...     2.500000e-12
Primitive pair pre-selection threshold      ...     2.500000e-12

Calculating pre-screening integrals         ... done (  0.8 sec) Dimension = 290
Organizing shell pair data                  ... done (  1.7 sec)
Shell pair information
Total number of shell pairs                 ...     42195
Shell pairs after pre-screening             ...     31847
Total number of primitive shell pairs       ...    106553
Primitive shell pairs kept                  ...     58971
          la=0 lb=0:   5036 shell pairs
          la=1 lb=0:   6993 shell pairs
          la=1 lb=1:   2401 shell pairs
          la=2 lb=0:   4558 shell pairs
          la=2 lb=1:   3177 shell pairs
          la=2 lb=2:   1076 shell pairs
          la=3 lb=0:   2714 shell pairs
          la=3 lb=1:   1888 shell pairs
          la=3 lb=2:   1244 shell pairs
          la=3 lb=3:    384 shell pairs
          la=4 lb=0:    963 shell pairs
          la=4 lb=1:    662 shell pairs
          la=4 lb=2:    435 shell pairs
          la=4 lb=3:    264 shell pairs
          la=4 lb=4:     52 shell pairs

Calculating one electron integrals          ... done (  0.2 sec)
Calculating RI/JK V-Matrix + Cholesky decomp... done (  0.2 sec)
Calculating Nuclear repulsion               ... done (  0.0 sec) ENN=    591.718436652951 Eh

SHARK setup successfully completed in   5.1 seconds

Maximum memory used throughout the entire GTOINT-calculation: 64.0 MB


           ************************************************************
           *        Program running with 4 parallel MPI-processes     *
           *              working on a common directory               *
           ************************************************************
-------------------------------------------------------------------------------
                                 ORCA SCF
-------------------------------------------------------------------------------

------------
SCF SETTINGS
------------
Hamiltonian:
 Density Functional     Method          .... DFT(GTOs)
 Exchange Functional    Exchange        .... PW6
 Correlation Functional Correlation     .... B95
 Gradients option       PostSCFGGA      .... off
 Hybrid DFT is turned on
   Fraction HF Exchange ScalHFX         ....  0.280000
   Scaling of DF-GGA-X  ScalDFX         ....  0.720000
   Scaling of DF-GGA-C  ScalDFC         ....  1.000000
   Scaling of DF-LDA-C  ScalLDAC        ....  1.000000
   Perturbative correction              ....  0.000000
   Density functional embedding theory  .... OFF
   NL short-range parameter             ....  9.000000
 RI-approximation to the Coulomb term is turned on
   Number of AuxJK basis functions      .... 1042
   RI-JK (J+K treated both via RI)      .... on


General Settings:
 Integral files         IntName         .... Keton-Li_sp
 Hartree-Fock type      HFTyp           .... RHF
 Total Charge           Charge          ....    0
 Multiplicity           Mult            ....    1
 Number of Electrons    NEL             ....   82
 Basis Dimension        Dim             ....  932
 Nuclear Repulsion      ENuc            ....    591.7184366530 Eh

Convergence Acceleration:
 DIIS                   CNVDIIS         .... on
   Start iteration      DIISMaxIt       ....    12
   Startup error        DIISStart       ....  0.200000
   # of expansion vecs  DIISMaxEq       ....     5
   Bias factor          DIISBfac        ....   1.050
   Max. coefficient     DIISMaxC        ....  10.000
 Trust-Rad. Augm. Hess. CNVTRAH         .... auto
   Auto Start mean grad. ratio tolernc. ....  1.125000
   Auto Start start iteration           ....    20
   Auto Start num. interpolation iter.  ....    10
   Max. Number of Micro iterations      ....    16
   Max. Number of Macro iterations      .... Maxiter - #DIIS iter
   Number of Davidson start vectors     ....     2
   Converg. threshold I  (grad. norm)   ....   1.000e-05
   Converg. threshold II (energy diff.) ....   1.000e-08
   Grad. Scal. Fac. for Micro threshold ....   0.100
   Minimum threshold for Micro iter.    ....   0.010
   NR start threshold (gradient norm)   ....   0.001
   Initial trust radius                 ....   0.400
   Minimum AH scaling param. (alpha)    ....   1.000
   Maximum AH scaling param. (alpha)    .... 1000.000
   Orbital update algorithm             .... Taylor
   White noise on init. David. guess    .... on
   Maximum white noise                  ....   0.010
   Quad. conv. algorithm                .... NR
 SOSCF                  CNVSOSCF        .... on
   Start iteration      SOSCFMaxIt      ....   150
   Startup grad/error   SOSCFStart      ....  0.003300
 Level Shifting         CNVShift        .... on
   Level shift para.    LevelShift      ....    0.2500
   Turn off err/grad.   ShiftErr        ....    0.0010
 Zerner damping         CNVZerner       .... off
 Static damping         CNVDamp         .... on
   Fraction old density DampFac         ....    0.7000
   Max. Damping (<1)    DampMax         ....    0.9800
   Min. Damping (>=0)   DampMin         ....    0.0000
   Turn off err/grad.   DampErr         ....    0.1000
 Fernandez-Rico         CNVRico         .... off

SCF Procedure:
 Maximum # iterations   MaxIter         ....   125
 SCF integral mode      SCFMode         .... Direct
   Integral package                     .... SHARK and LIBINT hybrid scheme
 Reset frequency        DirectResetFreq ....    20
 Integral Threshold     Thresh          ....  2.500e-11 Eh
 Primitive CutOff       TCut            ....  2.500e-12 Eh

Convergence Tolerance:
 Convergence Check Mode ConvCheckMode   .... Total+1el-Energy
 Convergence forced     ConvForced      .... 0
 Energy Change          TolE            ....  1.000e-08 Eh
 1-El. energy change                    ....  1.000e-05 Eh
 Orbital Gradient       TolG            ....  1.000e-05
 Orbital Rotation angle TolX            ....  1.000e-05
 DIIS Error             TolErr          ....  5.000e-07


Diagonalization of the overlap matrix:
Smallest eigenvalue                        ... 5.167e-06
Time for diagonalization                   ...    0.735 sec
Threshold for overlap eigenvalues          ... 1.000e-08
Number of eigenvalues below threshold      ... 0
Time for construction of square roots      ...    0.468 sec
Total time needed                          ...    1.211 sec

Time for model grid setup =    1.239 sec

------------------------------
INITIAL GUESS: MODEL POTENTIAL
------------------------------
Loading Hartree-Fock densities                     ... done
Calculating cut-offs                               ... done
Initializing the effective Hamiltonian             ... done
Setting up the integral package (SHARK)            ... done
Starting the Coulomb interaction                   ... done (   1.8 sec)
Reading the grid                                   ... done
Mapping shells                                     ... done
Starting the XC term evaluation                    ... done (   2.0 sec)
  promolecular density results
     # of electrons  =     81.994573360
     EX              =    -68.176008343
     EC              =     -5.237345117
     EX+EC           =    -73.413353460
Transforming the Hamiltonian                       ... done (   0.4 sec)
Diagonalizing the Hamiltonian                      ... done (   0.8 sec)
Back transforming the eigenvectors                 ... done (   0.2 sec)
Now organizing SCF variables                       ... done
                      ------------------
                      INITIAL GUESS DONE (   6.5 sec)
                      ------------------
-------------------
DFT GRID GENERATION
-------------------

General Integration Accuracy     IntAcc      ... 4.388
Radial Grid Type                 RadialGrid  ... OptM3 with GC (2021)
Angular Grid (max. ang.)         AngularGrid ... 4 (Lebedev-302)
Angular grid pruning method      GridPruning ... 4 (adaptive)
Weight generation scheme         WeightScheme... Becke
Basis function cutoff            BFCut       ... 1.0000e-11
Integration weight cutoff        WCut        ... 1.0000e-14
Angular grids for H and He will be reduced by one unit
Partially contracted basis set               ... off
Rotationally invariant grid construction     ... off

Total number of grid points                  ...   103661
Total number of batches                      ...     1628
Average number of points per batch           ...       63
Average number of grid points per atom       ...     4936
Time for grid setup =    3.702 sec


--------------------
CPCM SOLVATION MODEL
--------------------
CPCM parameters:
  Epsilon                                         ...       7.2500
  Refrac                                          ...       1.4070
  Rsolv                                           ...       1.3000
  Surface type                                    ... GAUSSIAN VDW
  Epsilon function type                           ...         CPCM
Radii:
 Radius for C  used is    3.8550 Bohr (=   2.0400 Ang.)
 Radius for H  used is    2.4944 Bohr (=   1.3200 Ang.)
 Radius for O  used is    3.4469 Bohr (=   1.8240 Ang.)
 Radius for Li used is    4.1272 Bohr (=   2.1840 Ang.)
Calculating surface                               ...        done! (  0.0s)
GEPOL surface points                              ...         1175
GEPOL Volume                                      ...    1486.7358
GEPOL Surface-area                                ...     809.9313
Calculating surface distance matrix               ...        done! (  0.0s)
Performing Cholesky decomposition & store         ...        done! (  0.2s)
Overall time for CPCM initialization              ...                 0.2s
--------------
SCF ITERATIONS
--------------
ITER       Energy         Delta-E        Max-DP      RMS-DP      [F,P]     Damp
  0   -506.7740046779   0.000000000000 0.04516421  0.00036836  0.4637663 0.7000
  1   -506.7576257219   0.016378956005 0.03513673  0.00031719  0.2439943 0.7000
                               ***Turning on DIIS***
  2   -506.8913991195  -0.133773397641 0.06626477  0.00057787  0.0684409 0.0000
  3   -507.1698818803  -0.278482760797 0.01151343  0.00008328  0.1603527 0.7000
  4   -507.2357073979  -0.065825517600 0.01229623  0.00009051  0.1219025 0.7000
  5   -507.2552982294  -0.019590831484 0.03373464  0.00025049  0.0773377 0.0000
  6   -507.2473694578   0.007928771624 0.00378860  0.00002904  0.0116195 0.0000
                      *** Initiating the SOSCF procedure ***
                           *** Shutting down DIIS ***
                      *** Re-Reading the Fockian *** 
                      *** Removing any level shift *** 
ITER      Energy       Delta-E        Grad      Rot      Max-DP    RMS-DP
  7   -507.24768401  -0.0003145503  0.000365  0.000365  0.001105  0.000011
  8   -507.24770425  -0.0000202441  0.000174  0.000744  0.000519  0.000009
  9   -507.24770675  -0.0000024931  0.000173  0.000427  0.000190  0.000003
 10   -507.24770965  -0.0000029007  0.000052  0.000161  0.000104  0.000001
 11   -507.24770963   0.0000000192  0.000041  0.000071  0.000044  0.000000
 12   -507.24770983  -0.0000002050  0.000008  0.000043  0.000035  0.000000
 13   -507.24770983   0.0000000016  0.000009  0.000020  0.000029  0.000000
                  ***Gradient check signals convergence***
              ***Rediagonalizing the Fockian in SOSCF/NRSCF***

               *****************************************************
               *                     SUCCESS                       *
               *           SCF CONVERGED AFTER  14 CYCLES          *
               *****************************************************


----------------
TOTAL SCF ENERGY
----------------

Total Energy       :         -507.24770983 Eh          -13802.91191 eV

Components:
Nuclear Repulsion  :          591.71843665 Eh           16101.47724 eV
Electronic Energy  :        -1098.96614649 Eh          -29904.38916 eV
One Electron Energy:        -1863.90787686 Eh          -50719.51186 eV
Two Electron Energy:          764.94173037 Eh           20815.12270 eV
CPCM Dielectric    :           -0.02838903 Eh              -0.77250 eV

Virial components:
Potential Energy   :        -1012.03835854 Eh          -27538.96379 eV
Kinetic Energy     :          504.79064870 Eh           13736.05188 eV
Virial Ratio       :            2.00486749


DFT components:
N(Alpha)           :       40.999988470567 electrons
N(Beta)            :       40.999988470567 electrons
N(Total)           :       81.999976941134 electrons
E(X)               :      -50.108205543247 Eh       
E(C)               :       -2.870721607812 Eh       
E(XC)              :      -52.978927151059 Eh       
DFET-embed. en.    :        0.000000000000 Eh       
CPCM Solvation Model Properties:
Surface-charge          :           -0.02904913
Charge-correction       :            0.00001528 Eh               0.00042 eV
Free-energy (cav+disp)  :  This term is not implemented in the current solvation scheme

---------------
SCF CONVERGENCE
---------------

  Last Energy change         ...   -3.8307e-09  Tolerance :   1.0000e-08
  Last MAX-Density change    ...    4.2241e-05  Tolerance :   1.0000e-07
  Last RMS-Density change    ...    3.2999e-07  Tolerance :   5.0000e-09
  Last Orbital Gradient      ...    6.6002e-07  Tolerance :   1.0000e-05
  Last Orbital Rotation      ...    2.6443e-06  Tolerance :   1.0000e-05

             **** THE GBW FILE WAS UPDATED (Keton-Li_sp.gbw) ****
             **** DENSITY Keton-Li_sp.scfp WAS UPDATED ****
             **** ENERGY FILE WAS UPDATED (Keton-Li_sp.en.tmp) ****
             **** THE GBW FILE WAS UPDATED (Keton-Li_sp.gbw) ****
             **** DENSITY Keton-Li_sp.scfp WAS UPDATED ****
----------------
ORBITAL ENERGIES
----------------

  NO   OCC          E(Eh)            E(eV) 
   0   2.0000     -19.324321      -525.8415 
   1   2.0000     -19.234337      -523.3929 
   2   2.0000     -10.357682      -281.8469 
   3   2.0000     -10.341192      -281.3981 
   4   2.0000     -10.337401      -281.2950 
   5   2.0000     -10.303449      -280.3711 
   6   2.0000     -10.298481      -280.2359 
   7   2.0000     -10.294444      -280.1261 
   8   2.0000     -10.289071      -279.9799 
   9   2.0000     -10.288906      -279.9754 
  10   2.0000     -10.250481      -278.9298 
  11   2.0000      -2.047521       -55.7159 
  12   2.0000      -1.088470       -29.6188 
  13   2.0000      -0.999093       -27.1867 
  14   2.0000      -0.873480       -23.7686 
  15   2.0000      -0.780253       -21.2318 
  16   2.0000      -0.773945       -21.0601 
  17   2.0000      -0.722613       -19.6633 
  18   2.0000      -0.711052       -19.3487 
  19   2.0000      -0.627361       -17.0714 
  20   2.0000      -0.613851       -16.7037 
  21   2.0000      -0.559810       -15.2332 
  22   2.0000      -0.523501       -14.2452 
  23   2.0000      -0.496484       -13.5100 
  24   2.0000      -0.494112       -13.4455 
  25   2.0000      -0.482686       -13.1346 
  26   2.0000      -0.464963       -12.6523 
  27   2.0000      -0.442983       -12.0542 
  28   2.0000      -0.436534       -11.8787 
  29   2.0000      -0.418956       -11.4004 
  30   2.0000      -0.404008       -10.9936 
  31   2.0000      -0.390503       -10.6261 
  32   2.0000      -0.374519       -10.1912 
  33   2.0000      -0.370494       -10.0817 
  34   2.0000      -0.367835       -10.0093 
  35   2.0000      -0.342005        -9.3064 
  36   2.0000      -0.334439        -9.1006 
  37   2.0000      -0.270847        -7.3701 
  38   2.0000      -0.263191        -7.1618 
  39   2.0000      -0.240152        -6.5349 
  40   2.0000      -0.204704        -5.5703 
  41   0.0000      -0.020496        -0.5577 
  42   0.0000      -0.016318        -0.4440 
  43   0.0000       0.004216         0.1147 
  44   0.0000       0.019679         0.5355 
  45   0.0000       0.022896         0.6230 
  46   0.0000       0.023924         0.6510 
  47   0.0000       0.040052         1.0899 
  48   0.0000       0.051754         1.4083 
  49   0.0000       0.061435         1.6717 
  50   0.0000       0.072627         1.9763 
  51   0.0000       0.074421         2.0251 
  52   0.0000       0.078222         2.1285 
  53   0.0000       0.090752         2.4695 
  54   0.0000       0.094288         2.5657 
  55   0.0000       0.096456         2.6247 
  56   0.0000       0.104794         2.8516 
  57   0.0000       0.108240         2.9454 
  58   0.0000       0.117688         3.2024 
  59   0.0000       0.120334         3.2744 
  60   0.0000       0.128056         3.4846 
  61   0.0000       0.132581         3.6077 
  62   0.0000       0.135763         3.6943 
  63   0.0000       0.141302         3.8450 
  64   0.0000       0.146791         3.9944 
  65   0.0000       0.153766         4.1842 
  66   0.0000       0.158436         4.3113 
  67   0.0000       0.163692         4.4543 
  68   0.0000       0.172948         4.7061 
  69   0.0000       0.177692         4.8353 
  70   0.0000       0.180225         4.9042 
  71   0.0000       0.195898         5.3306 
  72   0.0000       0.198182         5.3928 
  73   0.0000       0.208037         5.6610 
  74   0.0000       0.210872         5.7381 
  75   0.0000       0.222186         6.0460 
  76   0.0000       0.225572         6.1381 
  77   0.0000       0.232856         6.3363 
  78   0.0000       0.236116         6.4250 
  79   0.0000       0.247437         6.7331 
  80   0.0000       0.255701         6.9580 
  81   0.0000       0.261133         7.1058 
  82   0.0000       0.269226         7.3260 
  83   0.0000       0.270062         7.3488 
  84   0.0000       0.278449         7.5770 
  85   0.0000       0.287341         7.8190 
  86   0.0000       0.288018         7.8374 
  87   0.0000       0.293497         7.9865 
  88   0.0000       0.302577         8.2335 
  89   0.0000       0.306331         8.3357 
  90   0.0000       0.307229         8.3601 
  91   0.0000       0.316316         8.6074 
  92   0.0000       0.320564         8.7230 
  93   0.0000       0.324430         8.8282 
  94   0.0000       0.328769         8.9463 
  95   0.0000       0.332884         9.0582 
  96   0.0000       0.338725         9.2172 
  97   0.0000       0.343855         9.3568 
  98   0.0000       0.351597         9.5674 
  99   0.0000       0.352183         9.5834 
 100   0.0000       0.353065         9.6074 
 101   0.0000       0.364114         9.9080 
 102   0.0000       0.369331        10.0500 
 103   0.0000       0.372288        10.1305 
 104   0.0000       0.381887        10.3917 
 105   0.0000       0.387951        10.5567 
 106   0.0000       0.395054        10.7500 
 107   0.0000       0.405330        11.0296 
 108   0.0000       0.417215        11.3530 
 109   0.0000       0.424293        11.5456 
 110   0.0000       0.424497        11.5511 
 111   0.0000       0.441048        12.0015 
 112   0.0000       0.445670        12.1273 
 113   0.0000       0.451861        12.2958 
 114   0.0000       0.453377        12.3370 
 115   0.0000       0.461885        12.5685 
 116   0.0000       0.470632        12.8065 
 117   0.0000       0.475747        12.9457 
 118   0.0000       0.477579        12.9956 
 119   0.0000       0.484559        13.1855 
 120   0.0000       0.498793        13.5728 
 121   0.0000       0.500574        13.6213 
 122   0.0000       0.508583        13.8392 
 123   0.0000       0.514811        14.0087 
 124   0.0000       0.518256        14.1025 
 125   0.0000       0.521180        14.1820 
 126   0.0000       0.530546        14.4369 
 127   0.0000       0.536873        14.6091 
 128   0.0000       0.539945        14.6926 
 129   0.0000       0.554044        15.0763 
 130   0.0000       0.558799        15.2057 
 131   0.0000       0.564287        15.3550 
 132   0.0000       0.572421        15.5764 
 133   0.0000       0.585750        15.9391 
 134   0.0000       0.586795        15.9675 
 135   0.0000       0.599171        16.3043 
 136   0.0000       0.606351        16.4997 
 137   0.0000       0.607177        16.5221 
 138   0.0000       0.609760        16.5924 
 139   0.0000       0.620335        16.8802 
 140   0.0000       0.633095        17.2274 
 141   0.0000       0.636559        17.3217 
 142   0.0000       0.644010        17.5244 
 143   0.0000       0.656727        17.8704 
 144   0.0000       0.662278        18.0215 
 145   0.0000       0.676297        18.4030 
 146   0.0000       0.680284        18.5115 
 147   0.0000       0.691615        18.8198 
 148   0.0000       0.696060        18.9407 
 149   0.0000       0.701422        19.0867 
 150   0.0000       0.715633        19.4734 
 151   0.0000       0.720203        19.5977 
 152   0.0000       0.722460        19.6591 
 153   0.0000       0.722863        19.6701 
 154   0.0000       0.733361        19.9558 
 155   0.0000       0.743185        20.2231 
 156   0.0000       0.745785        20.2939 
 157   0.0000       0.752726        20.4827 
 158   0.0000       0.756681        20.5903 
 159   0.0000       0.762355        20.7447 
 160   0.0000       0.773268        21.0417 
 161   0.0000       0.774630        21.0788 
 162   0.0000       0.781375        21.2623 
 163   0.0000       0.786277        21.3957 
 164   0.0000       0.794792        21.6274 
 165   0.0000       0.797975        21.7140 
 166   0.0000       0.816088        22.2069 
 167   0.0000       0.820218        22.3193 
 168   0.0000       0.832616        22.6566 
 169   0.0000       0.840155        22.8618 
 170   0.0000       0.844143        22.9703 
 171   0.0000       0.850880        23.1536 
 172   0.0000       0.856748        23.3133 
 173   0.0000       0.862397        23.4670 
 174   0.0000       0.873837        23.7783 
 175   0.0000       0.880149        23.9501 
 176   0.0000       0.884889        24.0790 
 177   0.0000       0.888693        24.1826 
 178   0.0000       0.901401        24.5284 
 179   0.0000       0.908055        24.7094 
 180   0.0000       0.910852        24.7856 
 181   0.0000       0.921045        25.0629 
 182   0.0000       0.924032        25.1442 
 183   0.0000       0.932540        25.3757 
 184   0.0000       0.936628        25.4869 
 185   0.0000       0.939444        25.5636 
 186   0.0000       0.948509        25.8102 
 187   0.0000       0.961785        26.1715 
 188   0.0000       0.973729        26.4965 
 189   0.0000       0.976003        26.5584 
 190   0.0000       0.985673        26.8215 
 191   0.0000       0.995746        27.0956 
 192   0.0000       0.999871        27.2079 
 193   0.0000       1.003434        27.3048 
 194   0.0000       1.016507        27.6606 
 195   0.0000       1.021510        27.7967 
 196   0.0000       1.029823        28.0229 
 197   0.0000       1.035218        28.1697 
 198   0.0000       1.040471        28.3127 
 199   0.0000       1.043028        28.3822 
 200   0.0000       1.052823        28.6488 
 201   0.0000       1.066653        29.0251 
 202   0.0000       1.070098        29.1189 
 203   0.0000       1.074673        29.2433 
 204   0.0000       1.078676        29.3523 
 205   0.0000       1.091989        29.7145 
 206   0.0000       1.097273        29.8583 
 207   0.0000       1.102301        29.9951 
 208   0.0000       1.112559        30.2743 
 209   0.0000       1.127091        30.6697 
 210   0.0000       1.136455        30.9245 
 211   0.0000       1.142991        31.1024 
 212   0.0000       1.150722        31.3128 
 213   0.0000       1.153901        31.3993 
 214   0.0000       1.167748        31.7760 
 215   0.0000       1.177352        32.0374 
 216   0.0000       1.184986        32.2451 
 217   0.0000       1.200607        32.6702 
 218   0.0000       1.206654        32.8347 
 219   0.0000       1.219817        33.1929 
 220   0.0000       1.222369        33.2623 
 221   0.0000       1.239186        33.7200 
 222   0.0000       1.249892        34.0113 
 223   0.0000       1.259201        34.2646 
 224   0.0000       1.263905        34.3926 
 225   0.0000       1.275331        34.7035 
 226   0.0000       1.293133        35.1879 
 227   0.0000       1.306224        35.5442 
 228   0.0000       1.316372        35.8203 
 229   0.0000       1.326269        36.0896 
 230   0.0000       1.336560        36.3697 
 231   0.0000       1.351539        36.7772 
 232   0.0000       1.372504        37.3477 
 233   0.0000       1.383384        37.6438 
 234   0.0000       1.388645        37.7870 
 235   0.0000       1.408208        38.3193 
 236   0.0000       1.427874        38.8544 
 237   0.0000       1.439305        39.1655 
 238   0.0000       1.454364        39.5752 
 239   0.0000       1.464495        39.8509 
 240   0.0000       1.479277        40.2532 
 241   0.0000       1.487899        40.4878 
 242   0.0000       1.497675        40.7538 
 243   0.0000       1.522175        41.4205 
 244   0.0000       1.536388        41.8072 
 245   0.0000       1.548113        42.1263 
 246   0.0000       1.556558        42.3561 
 247   0.0000       1.577592        42.9285 
 248   0.0000       1.582956        43.0744 
 249   0.0000       1.604593        43.6632 
 250   0.0000       1.614286        43.9270 
 251   0.0000       1.628125        44.3035 
 252   0.0000       1.639940        44.6250 
 253   0.0000       1.642705        44.7003 
 254   0.0000       1.650252        44.9056 
 255   0.0000       1.654416        45.0189 
 256   0.0000       1.658108        45.1194 
 257   0.0000       1.667596        45.3776 
 258   0.0000       1.678125        45.6641 
 259   0.0000       1.710619        46.5483 
 260   0.0000       1.735710        47.2311 
 261   0.0000       1.745514        47.4978 
 262   0.0000       1.746338        47.5203 
 263   0.0000       1.761817        47.9415 
 264   0.0000       1.764220        48.0069 
 265   0.0000       1.776681        48.3460 
 266   0.0000       1.780708        48.4555 
 267   0.0000       1.793594        48.8062 
 268   0.0000       1.802734        49.0549 
 269   0.0000       1.809057        49.2269 
 270   0.0000       1.813629        49.3514 
 271   0.0000       1.822146        49.5831 
 272   0.0000       1.828240        49.7489 
 273   0.0000       1.833283        49.8862 
 274   0.0000       1.853760        50.4434 
 275   0.0000       1.865327        50.7581 
 276   0.0000       1.865544        50.7640 
 277   0.0000       1.882059        51.2134 
 278   0.0000       1.891834        51.4794 
 279   0.0000       1.906693        51.8838 
 280   0.0000       1.910255        51.9807 
 281   0.0000       1.913235        52.0618 
 282   0.0000       1.920563        52.2612 
 283   0.0000       1.930298        52.5261 
 284   0.0000       1.942141        52.8483 
 285   0.0000       1.944536        52.9135 
 286   0.0000       1.950401        53.0731 
 287   0.0000       1.959923        53.3322 
 288   0.0000       1.965735        53.4904 
 289   0.0000       1.978068        53.8260 
 290   0.0000       1.987518        54.0831 
 291   0.0000       1.992506        54.2188 
 292   0.0000       2.000614        54.4395 
 293   0.0000       2.007181        54.6182 
 294   0.0000       2.011503        54.7358 
 295   0.0000       2.019129        54.9433 
 296   0.0000       2.033746        55.3410 
 297   0.0000       2.048383        55.7393 
 298   0.0000       2.055873        55.9432 
 299   0.0000       2.064020        56.1649 
 300   0.0000       2.070399        56.3384 
 301   0.0000       2.076631        56.5080 
 302   0.0000       2.077563        56.5334 
 303   0.0000       2.101231        57.1774 
 304   0.0000       2.104594        57.2689 
 305   0.0000       2.114475        57.5378 
 306   0.0000       2.122697        57.7615 
 307   0.0000       2.131769        58.0084 
 308   0.0000       2.138076        58.1800 
 309   0.0000       2.148234        58.4564 
 310   0.0000       2.158563        58.7375 
 311   0.0000       2.164013        58.8858 
 312   0.0000       2.171308        59.0843 
 313   0.0000       2.178722        59.2860 
 314   0.0000       2.190539        59.6076 
 315   0.0000       2.203982        59.9734 
 316   0.0000       2.206802        60.0501 
 317   0.0000       2.215966        60.2995 
 318   0.0000       2.223437        60.5028 
 319   0.0000       2.227885        60.6238 
 320   0.0000       2.234804        60.8121 
 321   0.0000       2.257606        61.4326 
 322   0.0000       2.263715        61.5988 
 323   0.0000       2.271912        61.8219 
 324   0.0000       2.277130        61.9638 
 325   0.0000       2.302708        62.6599 
 326   0.0000       2.305406        62.7333 
 327   0.0000       2.308142        62.8077 
 328   0.0000       2.318704        63.0951 
 329   0.0000       2.321051        63.1590 
 330   0.0000       2.334366        63.5213 
 331   0.0000       2.344697        63.8025 
 332   0.0000       2.351648        63.9916 
 333   0.0000       2.354975        64.0821 
 334   0.0000       2.364921        64.3528 
 335   0.0000       2.374964        64.6260 
 336   0.0000       2.388669        64.9990 
 337   0.0000       2.394803        65.1659 
 338   0.0000       2.405355        65.4530 
 339   0.0000       2.415753        65.7360 
 340   0.0000       2.420559        65.8668 
 341   0.0000       2.423855        65.9564 
 342   0.0000       2.442506        66.4640 
 343   0.0000       2.456044        66.8323 
 344   0.0000       2.466124        67.1066 
 345   0.0000       2.472862        67.2900 
 346   0.0000       2.484865        67.6166 
 347   0.0000       2.487097        67.6774 
 348   0.0000       2.494805        67.8871 
 349   0.0000       2.512062        68.3567 
 350   0.0000       2.520327        68.5816 
 351   0.0000       2.528462        68.8029 
 352   0.0000       2.530291        68.8527 
 353   0.0000       2.534012        68.9540 
 354   0.0000       2.545755        69.2735 
 355   0.0000       2.549680        69.3803 
 356   0.0000       2.568439        69.8908 
 357   0.0000       2.574522        70.0563 
 358   0.0000       2.579534        70.1927 
 359   0.0000       2.600644        70.7671 
 360   0.0000       2.608694        70.9862 
 361   0.0000       2.617377        71.2224 
 362   0.0000       2.618731        71.2593 
 363   0.0000       2.630195        71.5713 
 364   0.0000       2.641970        71.8917 
 365   0.0000       2.653260        72.1989 
 366   0.0000       2.655255        72.2532 
 367   0.0000       2.661181        72.4144 
 368   0.0000       2.670771        72.6754 
 369   0.0000       2.675124        72.7938 
 370   0.0000       2.677928        72.8701 
 371   0.0000       2.695384        73.3451 
 372   0.0000       2.709954        73.7416 
 373   0.0000       2.716583        73.9220 
 374   0.0000       2.727459        74.2179 
 375   0.0000       2.733715        74.3882 
 376   0.0000       2.743396        74.6516 
 377   0.0000       2.747296        74.7577 
 378   0.0000       2.762159        75.1622 
 379   0.0000       2.775702        75.5307 
 380   0.0000       2.778684        75.6118 
 381   0.0000       2.789567        75.9080 
 382   0.0000       2.794429        76.0403 
 383   0.0000       2.798020        76.1380 
 384   0.0000       2.812001        76.5184 
 385   0.0000       2.815838        76.6228 
 386   0.0000       2.839997        77.2803 
 387   0.0000       2.844556        77.4043 
 388   0.0000       2.848593        77.5141 
 389   0.0000       2.861108        77.8547 
 390   0.0000       2.867735        78.0350 
 391   0.0000       2.880487        78.3820 
 392   0.0000       2.886036        78.5330 
 393   0.0000       2.900674        78.9314 
 394   0.0000       2.911947        79.2381 
 395   0.0000       2.916841        79.3713 
 396   0.0000       2.923206        79.5445 
 397   0.0000       2.940127        80.0049 
 398   0.0000       2.943905        80.1077 
 399   0.0000       2.972579        80.8880 
 400   0.0000       2.998109        81.5827 
 401   0.0000       2.999710        81.6263 
 402   0.0000       3.010223        81.9123 
 403   0.0000       3.022902        82.2573 
 404   0.0000       3.039641        82.7128 
 405   0.0000       3.052112        83.0522 
 406   0.0000       3.055422        83.1423 
 407   0.0000       3.064972        83.4021 
 408   0.0000       3.085050        83.9485 
 409   0.0000       3.099783        84.3494 
 410   0.0000       3.112661        84.6998 
 411   0.0000       3.135024        85.3083 
 412   0.0000       3.168348        86.2151 
 413   0.0000       3.180164        86.5367 
 414   0.0000       3.194076        86.9152 
 415   0.0000       3.210164        87.3530 
 416   0.0000       3.218644        87.5837 
 417   0.0000       3.228325        87.8472 
 418   0.0000       3.241774        88.2132 
 419   0.0000       3.258065        88.6565 
 420   0.0000       3.267788        88.9210 
 421   0.0000       3.292705        89.5991 
 422   0.0000       3.304523        89.9206 
 423   0.0000       3.314704        90.1977 
 424   0.0000       3.322811        90.4183 
 425   0.0000       3.339511        90.8727 
 426   0.0000       3.348079        91.1059 
 427   0.0000       3.360551        91.4452 
 428   0.0000       3.371561        91.7448 
 429   0.0000       3.382690        92.0477 
 430   0.0000       3.414086        92.9020 
 431   0.0000       3.417256        92.9883 
 432   0.0000       3.425835        93.2217 
 433   0.0000       3.431359        93.3720 
 434   0.0000       3.442696        93.6805 
 435   0.0000       3.454854        94.0114 
 436   0.0000       3.464244        94.2669 
 437   0.0000       3.478155        94.6454 
 438   0.0000       3.481402        94.7338 
 439   0.0000       3.509985        95.5115 
 440   0.0000       3.521523        95.8255 
 441   0.0000       3.535289        96.2001 
 442   0.0000       3.537727        96.2664 
 443   0.0000       3.554204        96.7148 
 444   0.0000       3.566552        97.0508 
 445   0.0000       3.576739        97.3280 
 446   0.0000       3.581371        97.4540 
 447   0.0000       3.598787        97.9280 
 448   0.0000       3.606942        98.1499 
 449   0.0000       3.629544        98.7649 
 450   0.0000       3.652001        99.3760 
 451   0.0000       3.683107       100.2224 
 452   0.0000       3.709611       100.9436 
 453   0.0000       3.717997       101.1719 
 454   0.0000       3.725596       101.3786 
 455   0.0000       3.773576       102.6842 
 456   0.0000       3.788920       103.1018 
 457   0.0000       3.800428       103.4149 
 458   0.0000       3.814256       103.7912 
 459   0.0000       3.852226       104.8244 
 460   0.0000       3.855807       104.9218 
 461   0.0000       3.870154       105.3122 
 462   0.0000       3.879192       105.5582 
 463   0.0000       3.888825       105.8203 
 464   0.0000       3.920829       106.6912 
 465   0.0000       3.934213       107.0554 
 466   0.0000       3.958736       107.7227 
 467   0.0000       3.982603       108.3721 
 468   0.0000       4.010956       109.1437 
 469   0.0000       4.049759       110.1995 
 470   0.0000       4.070458       110.7628 
 471   0.0000       4.086162       111.1901 
 472   0.0000       4.091296       111.3298 
 473   0.0000       4.110997       111.8659 
 474   0.0000       4.122320       112.1740 
 475   0.0000       4.127507       112.3152 
 476   0.0000       4.152071       112.9836 
 477   0.0000       4.165734       113.3554 
 478   0.0000       4.183586       113.8412 
 479   0.0000       4.194448       114.1367 
 480   0.0000       4.212311       114.6228 
 481   0.0000       4.237524       115.3089 
 482   0.0000       4.254300       115.7654 
 483   0.0000       4.277854       116.4063 
 484   0.0000       4.304326       117.1267 
 485   0.0000       4.322433       117.6194 
 486   0.0000       4.336001       117.9886 
 487   0.0000       4.363841       118.7462 
 488   0.0000       4.394509       119.5807 
 489   0.0000       4.420466       120.2870 
 490   0.0000       4.432887       120.6250 
 491   0.0000       4.451003       121.1180 
 492   0.0000       4.492376       122.2438 
 493   0.0000       4.505012       122.5876 
 494   0.0000       4.547365       123.7401 
 495   0.0000       4.568578       124.3173 
 496   0.0000       4.571106       124.3861 
 497   0.0000       4.578869       124.5973 
 498   0.0000       4.591421       124.9389 
 499   0.0000       4.652468       126.6001 
 500   0.0000       4.658366       126.7606 
 501   0.0000       4.727589       128.6442 
 502   0.0000       4.750797       129.2757 
 503   0.0000       4.761654       129.5712 
 504   0.0000       4.802955       130.6950 
 505   0.0000       4.837853       131.6447 
 506   0.0000       4.872266       132.5811 
 507   0.0000       4.876461       132.6952 
 508   0.0000       4.893915       133.1702 
 509   0.0000       4.900129       133.3393 
 510   0.0000       4.926026       134.0440 
 511   0.0000       4.951964       134.7498 
 512   0.0000       4.982969       135.5935 
 513   0.0000       5.002386       136.1218 
 514   0.0000       5.027009       136.7919 
 515   0.0000       5.035667       137.0275 
 516   0.0000       5.043917       137.2520 
 517   0.0000       5.055433       137.5653 
 518   0.0000       5.066146       137.8568 
 519   0.0000       5.078357       138.1891 
 520   0.0000       5.089020       138.4793 
 521   0.0000       5.090750       138.5264 
 522   0.0000       5.117153       139.2448 
 523   0.0000       5.125241       139.4649 
 524   0.0000       5.133437       139.6879 
 525   0.0000       5.160906       140.4354 
 526   0.0000       5.167503       140.6149 
 527   0.0000       5.180790       140.9765 
 528   0.0000       5.187959       141.1715 
 529   0.0000       5.205690       141.6540 
 530   0.0000       5.217756       141.9824 
 531   0.0000       5.249313       142.8411 
 532   0.0000       5.259018       143.1052 
 533   0.0000       5.269052       143.3782 
 534   0.0000       5.285411       143.8233 
 535   0.0000       5.298443       144.1780 
 536   0.0000       5.323059       144.8478 
 537   0.0000       5.328354       144.9919 
 538   0.0000       5.345145       145.4488 
 539   0.0000       5.354947       145.7155 
 540   0.0000       5.358608       145.8151 
 541   0.0000       5.372716       146.1990 
 542   0.0000       5.378417       146.3542 
 543   0.0000       5.400388       146.9520 
 544   0.0000       5.410214       147.2194 
 545   0.0000       5.417888       147.4282 
 546   0.0000       5.444181       148.1437 
 547   0.0000       5.462135       148.6323 
 548   0.0000       5.479880       149.1151 
 549   0.0000       5.489188       149.3684 
 550   0.0000       5.509715       149.9270 
 551   0.0000       5.535413       150.6263 
 552   0.0000       5.544435       150.8717 
 553   0.0000       5.553511       151.1187 
 554   0.0000       5.570432       151.5792 
 555   0.0000       5.577504       151.7716 
 556   0.0000       5.589256       152.0914 
 557   0.0000       5.600331       152.3928 
 558   0.0000       5.615841       152.8148 
 559   0.0000       5.646473       153.6484 
 560   0.0000       5.655269       153.8877 
 561   0.0000       5.659126       153.9927 
 562   0.0000       5.664880       154.1492 
 563   0.0000       5.691520       154.8741 
 564   0.0000       5.703387       155.1970 
 565   0.0000       5.711741       155.4244 
 566   0.0000       5.727049       155.8409 
 567   0.0000       5.737846       156.1347 
 568   0.0000       5.748771       156.4320 
 569   0.0000       5.763296       156.8273 
 570   0.0000       5.773253       157.0982 
 571   0.0000       5.791050       157.5825 
 572   0.0000       5.794683       157.6813 
 573   0.0000       5.801504       157.8670 
 574   0.0000       5.806923       158.0144 
 575   0.0000       5.816552       158.2764 
 576   0.0000       5.829211       158.6209 
 577   0.0000       5.833664       158.7421 
 578   0.0000       5.861558       159.5011 
 579   0.0000       5.868690       159.6952 
 580   0.0000       5.883119       160.0878 
 581   0.0000       5.895098       160.4138 
 582   0.0000       5.900096       160.5498 
 583   0.0000       5.907926       160.7628 
 584   0.0000       5.918962       161.0631 
 585   0.0000       5.932018       161.4184 
 586   0.0000       5.935992       161.5266 
 587   0.0000       5.953565       162.0047 
 588   0.0000       5.965726       162.3356 
 589   0.0000       5.982251       162.7853 
 590   0.0000       5.989431       162.9807 
 591   0.0000       5.993665       163.0959 
 592   0.0000       6.005059       163.4060 
 593   0.0000       6.011697       163.5866 
 594   0.0000       6.022843       163.8899 
 595   0.0000       6.036752       164.2684 
 596   0.0000       6.042274       164.4186 
 597   0.0000       6.054992       164.7647 
 598   0.0000       6.063223       164.9887 
 599   0.0000       6.075972       165.3356 
 600   0.0000       6.079123       165.4214 
 601   0.0000       6.098428       165.9467 
 602   0.0000       6.099710       165.9815 
 603   0.0000       6.109941       166.2599 
 604   0.0000       6.121782       166.5822 
 605   0.0000       6.126190       166.7021 
 606   0.0000       6.136485       166.9822 
 607   0.0000       6.142155       167.1365 
 608   0.0000       6.147316       167.2770 
 609   0.0000       6.162288       167.6844 
 610   0.0000       6.168410       167.8510 
 611   0.0000       6.182411       168.2319 
 612   0.0000       6.185113       168.3055 
 613   0.0000       6.193751       168.5405 
 614   0.0000       6.205315       168.8552 
 615   0.0000       6.219799       169.2493 
 616   0.0000       6.225785       169.4122 
 617   0.0000       6.234390       169.6464 
 618   0.0000       6.246584       169.9782 
 619   0.0000       6.251190       170.1035 
 620   0.0000       6.258763       170.3096 
 621   0.0000       6.263735       170.4449 
 622   0.0000       6.271888       170.6668 
 623   0.0000       6.282799       170.9636 
 624   0.0000       6.299245       171.4112 
 625   0.0000       6.306713       171.6144 
 626   0.0000       6.307580       171.6380 
 627   0.0000       6.320936       172.0014 
 628   0.0000       6.335520       172.3983 
 629   0.0000       6.343250       172.6086 
 630   0.0000       6.349806       172.7870 
 631   0.0000       6.364915       173.1981 
 632   0.0000       6.376779       173.5210 
 633   0.0000       6.397644       174.0887 
 634   0.0000       6.400298       174.1610 
 635   0.0000       6.415359       174.5708 
 636   0.0000       6.418640       174.6601 
 637   0.0000       6.427844       174.9105 
 638   0.0000       6.446480       175.4176 
 639   0.0000       6.449075       175.4883 
 640   0.0000       6.463053       175.8686 
 641   0.0000       6.481300       176.3651 
 642   0.0000       6.491974       176.6556 
 643   0.0000       6.494263       176.7179 
 644   0.0000       6.515504       177.2959 
 645   0.0000       6.526240       177.5880 
 646   0.0000       6.533045       177.7732 
 647   0.0000       6.544140       178.0751 
 648   0.0000       6.551695       178.2807 
 649   0.0000       6.564138       178.6193 
 650   0.0000       6.580083       179.0532 
 651   0.0000       6.593904       179.4293 
 652   0.0000       6.600504       179.6088 
 653   0.0000       6.613134       179.9525 
 654   0.0000       6.617723       180.0774 
 655   0.0000       6.627182       180.3348 
 656   0.0000       6.630980       180.4381 
 657   0.0000       6.644113       180.7955 
 658   0.0000       6.672023       181.5550 
 659   0.0000       6.677179       181.6953 
 660   0.0000       6.697486       182.2479 
 661   0.0000       6.702704       182.3899 
 662   0.0000       6.710012       182.5887 
 663   0.0000       6.712092       182.6453 
 664   0.0000       6.725197       183.0019 
 665   0.0000       6.729802       183.1272 
 666   0.0000       6.747480       183.6083 
 667   0.0000       6.754033       183.7866 
 668   0.0000       6.773561       184.3180 
 669   0.0000       6.781557       184.5355 
 670   0.0000       6.787200       184.6891 
 671   0.0000       6.810004       185.3096 
 672   0.0000       6.821453       185.6212 
 673   0.0000       6.840348       186.1353 
 674   0.0000       6.857869       186.6121 
 675   0.0000       6.878167       187.1645 
 676   0.0000       6.889012       187.4595 
 677   0.0000       6.898118       187.7073 
 678   0.0000       6.908872       188.0000 
 679   0.0000       6.932591       188.6454 
 680   0.0000       6.942391       188.9121 
 681   0.0000       6.967435       189.5935 
 682   0.0000       6.982655       190.0077 
 683   0.0000       6.990116       190.2107 
 684   0.0000       7.001565       190.5223 
 685   0.0000       7.012656       190.8241 
 686   0.0000       7.072244       192.4456 
 687   0.0000       7.073940       192.4917 
 688   0.0000       7.106645       193.3816 
 689   0.0000       7.115075       193.6110 
 690   0.0000       7.127246       193.9422 
 691   0.0000       7.158210       194.7848 
 692   0.0000       7.172628       195.1771 
 693   0.0000       7.194728       195.7785 
 694   0.0000       7.208178       196.1445 
 695   0.0000       7.223102       196.5506 
 696   0.0000       7.247246       197.2076 
 697   0.0000       7.280701       198.1179 
 698   0.0000       7.282990       198.1802 
 699   0.0000       7.304413       198.7632 
 700   0.0000       7.324242       199.3028 
 701   0.0000       7.331102       199.4894 
 702   0.0000       7.359850       200.2717 
 703   0.0000       7.363902       200.3820 
 704   0.0000       7.391348       201.1288 
 705   0.0000       7.406702       201.5466 
 706   0.0000       7.413139       201.7218 
 707   0.0000       7.439454       202.4378 
 708   0.0000       7.471184       203.3013 
 709   0.0000       7.474818       203.4001 
 710   0.0000       7.483049       203.6241 
 711   0.0000       7.489954       203.8120 
 712   0.0000       7.499305       204.0665 
 713   0.0000       7.511969       204.4111 
 714   0.0000       7.524678       204.7569 
 715   0.0000       7.528036       204.8483 
 716   0.0000       7.553525       205.5419 
 717   0.0000       7.569307       205.9713 
 718   0.0000       7.593526       206.6303 
 719   0.0000       7.607935       207.0224 
 720   0.0000       7.618455       207.3087 
 721   0.0000       7.626370       207.5241 
 722   0.0000       7.637750       207.8337 
 723   0.0000       7.650136       208.1708 
 724   0.0000       7.654293       208.2839 
 725   0.0000       7.672232       208.7720 
 726   0.0000       7.678219       208.9350 
 727   0.0000       7.700014       209.5280 
 728   0.0000       7.715123       209.9392 
 729   0.0000       7.741903       210.6679 
 730   0.0000       7.767207       211.3564 
 731   0.0000       7.775128       211.5720 
 732   0.0000       7.787716       211.9145 
 733   0.0000       7.793484       212.0715 
 734   0.0000       7.808726       212.4862 
 735   0.0000       7.811216       212.5540 
 736   0.0000       7.857522       213.8140 
 737   0.0000       7.863475       213.9760 
 738   0.0000       7.879017       214.3990 
 739   0.0000       7.887728       214.6360 
 740   0.0000       7.900049       214.9713 
 741   0.0000       7.906238       215.1397 
 742   0.0000       7.916605       215.4218 
 743   0.0000       7.933899       215.8924 
 744   0.0000       7.949911       216.3281 
 745   0.0000       7.972904       216.9538 
 746   0.0000       8.020360       218.2451 
 747   0.0000       8.074597       219.7210 
 748   0.0000       8.087580       220.0742 
 749   0.0000       8.101394       220.4501 
 750   0.0000       8.112843       220.7617 
 751   0.0000       8.129844       221.2243 
 752   0.0000       8.156141       221.9399 
 753   0.0000       8.168492       222.2760 
 754   0.0000       8.182299       222.6517 
 755   0.0000       8.192404       222.9266 
 756   0.0000       8.206742       223.3168 
 757   0.0000       8.217089       223.5984 
 758   0.0000       8.223310       223.7676 
 759   0.0000       8.229611       223.9391 
 760   0.0000       8.234418       224.0699 
 761   0.0000       8.237423       224.1517 
 762   0.0000       8.242664       224.2943 
 763   0.0000       8.251793       224.5427 
 764   0.0000       8.262372       224.8306 
 765   0.0000       8.293274       225.6714 
 766   0.0000       8.300778       225.8756 
 767   0.0000       8.306389       226.0283 
 768   0.0000       8.309162       226.1038 
 769   0.0000       8.328280       226.6240 
 770   0.0000       8.333512       226.7664 
 771   0.0000       8.336124       226.8375 
 772   0.0000       8.358592       227.4489 
 773   0.0000       8.368061       227.7065 
 774   0.0000       8.370414       227.7705 
 775   0.0000       8.384742       228.1604 
 776   0.0000       8.392754       228.3784 
 777   0.0000       8.411470       228.8877 
 778   0.0000       8.422477       229.1872 
 779   0.0000       8.428503       229.3512 
 780   0.0000       8.433875       229.4974 
 781   0.0000       8.440139       229.6679 
 782   0.0000       8.448749       229.9022 
 783   0.0000       8.455495       230.0857 
 784   0.0000       8.478454       230.7104 
 785   0.0000       8.496246       231.1946 
 786   0.0000       8.499688       231.2883 
 787   0.0000       8.523954       231.9486 
 788   0.0000       8.557609       232.8644 
 789   0.0000       8.602443       234.0844 
 790   0.0000       8.609982       234.2895 
 791   0.0000       8.619455       234.5473 
 792   0.0000       8.629413       234.8183 
 793   0.0000       8.636963       235.0237 
 794   0.0000       8.659949       235.6492 
 795   0.0000       8.680057       236.1964 
 796   0.0000       8.688045       236.4137 
 797   0.0000       8.694561       236.5910 
 798   0.0000       8.704412       236.8591 
 799   0.0000       8.724523       237.4064 
 800   0.0000       8.743014       237.9095 
 801   0.0000       8.764997       238.5077 
 802   0.0000       8.807049       239.6520 
 803   0.0000       8.822283       240.0665 
 804   0.0000       8.834898       240.4098 
 805   0.0000       8.853846       240.9254 
 806   0.0000       8.863798       241.1962 
 807   0.0000       8.880090       241.6395 
 808   0.0000       8.905469       242.3301 
 809   0.0000       8.921225       242.7589 
 810   0.0000       8.927849       242.9391 
 811   0.0000       8.985740       244.5144 
 812   0.0000       9.011011       245.2021 
 813   0.0000       9.019400       245.4304 
 814   0.0000       9.037444       245.9214 
 815   0.0000       9.088706       247.3163 
 816   0.0000       9.117303       248.0944 
 817   0.0000       9.140992       248.7390 
 818   0.0000       9.167805       249.4686 
 819   0.0000       9.217779       250.8285 
 820   0.0000       9.254966       251.8404 
 821   0.0000       9.334218       253.9970 
 822   0.0000       9.394677       255.6422 
 823   0.0000       9.444708       257.0036 
 824   0.0000       9.473783       257.7948 
 825   0.0000       9.477586       257.8982 
 826   0.0000       9.537675       259.5333 
 827   0.0000       9.588143       260.9066 
 828   0.0000       9.595869       261.1169 
 829   0.0000       9.631821       262.0952 
 830   0.0000       9.654118       262.7019 
 831   0.0000       9.659802       262.8566 
 832   0.0000       9.662252       262.9232 
 833   0.0000       9.671149       263.1653 
 834   0.0000       9.682374       263.4708 
 835   0.0000       9.691201       263.7110 
 836   0.0000       9.708420       264.1795 
 837   0.0000       9.754631       265.4370 
 838   0.0000       9.766495       265.7598 
 839   0.0000       9.781032       266.1554 
 840   0.0000       9.811743       266.9911 
 841   0.0000       9.823806       267.3193 
 842   0.0000       9.833331       267.5785 
 843   0.0000       9.837088       267.6808 
 844   0.0000       9.843453       267.8540 
 845   0.0000       9.858583       268.2657 
 846   0.0000       9.889082       269.0956 
 847   0.0000       9.910813       269.6869 
 848   0.0000       9.930687       270.2277 
 849   0.0000       9.938967       270.4530 
 850   0.0000       9.986159       271.7372 
 851   0.0000      10.026914       272.8462 
 852   0.0000      10.034984       273.0658 
 853   0.0000      10.038648       273.1655 
 854   0.0000      10.094897       274.6961 
 855   0.0000      10.142416       275.9892 
 856   0.0000      10.158941       276.4388 
 857   0.0000      10.203104       277.6406 
 858   0.0000      10.207677       277.7650 
 859   0.0000      10.218777       278.0671 
 860   0.0000      10.238368       278.6002 
 861   0.0000      10.256210       279.0857 
 862   0.0000      10.287235       279.9299 
 863   0.0000      10.396082       282.8918 
 864   0.0000      10.411407       283.3088 
 865   0.0000      10.526260       286.4341 
 866   0.0000      10.566029       287.5163 
 867   0.0000      10.603697       288.5413 
 868   0.0000      10.652005       289.8558 
 869   0.0000      10.711257       291.4681 
 870   0.0000      10.848852       295.2123 
 871   0.0000      10.906459       296.7798 
 872   0.0000      10.956252       298.1348 
 873   0.0000      11.014614       299.7229 
 874   0.0000      11.040572       300.4292 
 875   0.0000      11.113238       302.4066 
 876   0.0000      11.374304       309.5106 
 877   0.0000      11.378374       309.6213 
 878   0.0000      11.443962       311.4060 
 879   0.0000      11.454633       311.6964 
 880   0.0000      11.554043       314.4015 
 881   0.0000      11.569829       314.8311 
 882   0.0000      11.836407       322.0850 
 883   0.0000      11.860371       322.7371 
 884   0.0000      11.861053       322.7557 
 885   0.0000      11.953464       325.2703 
 886   0.0000      11.960783       325.4694 
 887   0.0000      11.971033       325.7484 
 888   0.0000      12.065681       328.3239 
 889   0.0000      12.133381       330.1661 
 890   0.0000      12.169973       331.1618 
 891   0.0000      12.187368       331.6351 
 892   0.0000      12.286146       334.3230 
 893   0.0000      12.325395       335.3911 
 894   0.0000      12.403671       337.5211 
 895   0.0000      12.504227       340.2573 
 896   0.0000      12.601518       342.9047 
 897   0.0000      12.657626       344.4315 
 898   0.0000      12.680734       345.0603 
 899   0.0000      12.693147       345.3981 
 900   0.0000      12.776959       347.6787 
 901   0.0000      12.910579       351.3147 
 902   0.0000      12.982161       353.2625 
 903   0.0000      13.091208       356.2299 
 904   0.0000      13.110670       356.7595 
 905   0.0000      13.481088       366.8391 
 906   0.0000      13.585264       369.6738 
 907   0.0000      13.813871       375.8946 
 908   0.0000      14.298845       389.0913 
 909   0.0000      14.615711       397.7137 
 910   0.0000      27.903336       759.2884 
 911   0.0000      28.209554       767.6210 
 912   0.0000      28.365467       771.8636 
 913   0.0000      28.481086       775.0097 
 914   0.0000      28.817680       784.1689 
 915   0.0000      28.863754       785.4227 
 916   0.0000      28.928547       787.1858 
 917   0.0000      29.024760       789.8039 
 918   0.0000      29.271811       796.5265 
 919   0.0000      48.162236      1310.5611 
 920   0.0000      48.305969      1314.4723 
 921   0.0000     147.057075      4001.6264 
 922   0.0000     147.339547      4009.3129 
 923   0.0000     147.496368      4013.5802 
 924   0.0000     147.617563      4016.8781 
 925   0.0000     147.914291      4024.9525 
 926   0.0000     147.978695      4026.7050 
 927   0.0000     148.035199      4028.2425 
 928   0.0000     148.127073      4030.7426 
 929   0.0000     148.392438      4037.9635 
 930   0.0000     253.324337      6893.3057 
 931   0.0000     253.495465      6897.9623 

                    ********************************
                    * MULLIKEN POPULATION ANALYSIS *
                    ********************************

-----------------------
MULLIKEN ATOMIC CHARGES
-----------------------
   0 C :    0.097402
   1 C :   -0.116413
   2 C :   -0.190320
   3 C :   -0.133261
   4 C :    0.049793
   5 C :   -0.026864
   6 H :    0.099208
   7 H :    0.114600
   8 H :    0.124430
   9 H :    0.107084
  10 C :    0.134820
  11 C :   -0.385316
  12 H :    0.080534
  13 H :    0.107051
  14 O :   -0.427577
  15 Li:    0.484910
  16 O :   -0.381935
  17 C :   -0.080397
  18 H :    0.107304
  19 H :    0.127575
  20 H :    0.107373
Sum of atomic charges:   -0.0000000

--------------------------------
MULLIKEN REDUCED ORBITAL CHARGES
--------------------------------
  0 C s       :     3.208969  s :     3.208969
      pz      :     0.930552  p :     2.521887
      px      :     0.732248
      py      :     0.859087
[...]
      g+3     :     0.000072
      g-3     :     0.000843
      g+4     :     0.003448
      g-4     :     0.001838
  3 C s       :     2.582717  s :     2.582717
      pz      :     0.794043  p :     2.727937
      px      :     0.966214
      py      :     0.967680
      dz2     :     0.039615  d :     0.500160
      dxz     :     0.045322
      dyz     :     0.072995
      dx2y2   :     0.153364
      dxy     :     0.188864
      f0      :     0.006261  f :     0.112145
      f+1     :     0.006887
      f-1     :     0.007786
      f+2     :     0.017479
      f-2     :     0.008951
      f+3     :     0.047307
      f-3     :     0.017474
      g0      :     0.000450  g :     0.011172
      g+1     :     0.000939
      g-1     :     0.001088
      g+2     :     0.001248
      g-2     :     0.001160
      g+3     :     0.000199
      g-3     :     0.000831
      g+4     :     0.002505
      g-4     :     0.002752
  4 C s       :     2.577767  s :     2.577767
      pz      :     0.757539  p :     2.700835
      px      :     0.957376
      py      :     0.985920
      dz2     :     0.051973  d :     0.644135
      dxz     :     0.093581
      dyz     :     0.098636
      dx2y2   :     0.194271
      dxy     :     0.205674
      f0      :     0.009785  f :     0.152337
      f+1     :     0.009045
      f-1     :     0.008958
      f+2     :     0.020559
      f-2     :     0.018222
      f+3     :     0.065101
      f-3     :     0.020667
      g0      :     0.000510  g :     0.013947
      g+1     :     0.001370
      g-1     :     0.001362
      g+2     :     0.001292
      g-2     :     0.001305
      g+3     :     0.000283
      g-3     :     0.001297
      g+4     :     0.003105
      g-4     :     0.003423
  5 C s       :     2.576542  s :     2.576542
      pz      :     0.794331  p :     2.713734
      px      :     0.979378
      py      :     0.940025
      dz2     :     0.040646  d :     0.490111
      dxz     :     0.093935
      dyz     :     0.024539
      dx2y2   :     0.186265
      dxy     :     0.144726
      f0      :     0.007093  f :     0.114790
      f+1     :     0.009148
      f-1     :     0.006130
      f+2     :     0.007132
      f-2     :     0.020700
      f+3     :     0.045374
      f-3     :     0.019213
      g0      :     0.000448  g :     0.011463
      g+1     :     0.001523
      g-1     :     0.000662
      g+2     :     0.001180
      g-2     :     0.001189
      g+3     :     0.000166
      g-3     :     0.000954
      g+4     :     0.003250
      g-4     :     0.002091
  6 H s       :     0.762504  s :     0.762504
      pz      :     0.056121  p :     0.198961
      px      :     0.045191
      py      :     0.097649
      dz2     :     0.005256  d :     0.067115
      dxz     :     0.000704
      dyz     :     0.021280
      dx2y2   :     0.015413
      dxy     :     0.024463
      f0      :     0.001009  f :     0.009725
      f+1     :     0.000215
      f-1     :     0.001148
      f+2     :     0.001856
      f-2     :     0.000163
      f+3     :     0.003381
      f-3     :     0.001952
  7 H s       :     0.784037  s :     0.784037
      pz      :     0.061114  p :     0.201742
      px      :     0.085150
      py      :     0.055478
      dz2     :     0.004863  d :     0.066553
      dxz     :     0.016817
      dyz     :     0.005528
      dx2y2   :     0.021418
      dxy     :     0.017927
      f0      :     0.001125  f :     0.009749
      f+1     :     0.000858
      f-1     :     0.000419
      f+2     :     0.000585
      f-2     :     0.001376
      f+3     :     0.003425
      f-3     :     0.001962
  8 H s       :     0.792117  s :     0.792117
      pz      :     0.053155  p :     0.189145
      px      :     0.043144
      py      :     0.092846
      dz2     :     0.005034  d :     0.064136
      dxz     :     0.000681
      dyz     :     0.019763
      dx2y2   :     0.014307
      dxy     :     0.024350
      f0      :     0.000973  f :     0.009455
      f+1     :     0.000224
      f-1     :     0.001074
      f+2     :     0.001683
      f-2     :     0.000151
      f+3     :     0.003377
      f-3     :     0.001973
  9 H s       :     0.784472  s :     0.784472
      pz      :     0.056284  p :     0.197160
      px      :     0.083416
      py      :     0.057461
      dz2     :     0.004808  d :     0.066267
      dxz     :     0.015621
      dyz     :     0.006219
      dx2y2   :     0.022722
      dxy     :     0.016896
      f0      :     0.001077  f :     0.009655
      f+1     :     0.000794
      f-1     :     0.000464
      f+2     :     0.000364
      f-2     :     0.001531
      f+3     :     0.003427
      f-3     :     0.001997
 10 C s       :     2.592130  s :     2.592130
      pz      :     0.786762  p :     2.664000
      px      :     1.006061
      py      :     0.871178
      dz2     :     0.111458  d :     0.920653
      dxz     :     0.121550
      dyz     :     0.168480
      dx2y2   :     0.243727
      dxy     :     0.275438
      f0      :     0.014289  f :     0.249956
      f+1     :     0.011509
      f-1     :     0.028609
      f+2     :     0.039020
      f-2     :     0.030900
      f+3     :     0.087134
      f-3     :     0.038494
      g0      :     0.004055  g :     0.030315
      g+1     :     0.001433
      g-1     :     0.002212
      g+2     :     0.003875
      g-2     :     0.001353
      g+3     :     0.003820
      g-3     :     0.003697
      g+4     :     0.004437
      g-4     :     0.005432
 11 C s       :     2.616627  s :     2.616627
      pz      :     0.930132  p :     2.873350
      px      :     0.981611
      py      :     0.961607
      dz2     :     0.029002  d :     0.310546
      dxz     :     0.040853
      dyz     :     0.030919
      dx2y2   :     0.116727
      dxy     :     0.093045
      f0      :     0.004141  f :     0.063189
      f+1     :     0.009102
      f-1     :     0.002559
      f+2     :     0.007199
      f-2     :     0.009076
      f+3     :     0.018524
      f-3     :     0.012587
      g0      :     0.000819  g :     0.007420
      g+1     :     0.000743
      g-1     :     0.000441
      g+2     :     0.000341
      g-2     :     0.000888
      g+3     :     0.000730
      g-3     :     0.001023
      g+4     :     0.001513
      g-4     :     0.000922
 12 H s       :     0.810356  s :     0.810356
      pz      :     0.076750  p :     0.217196
      px      :     0.048077
      py      :     0.092368
      dz2     :     0.010560  d :     0.066786
      dxz     :     0.003193
      dyz     :     0.019233
      dx2y2   :     0.012807
      dxy     :     0.020993
      f0      :     0.000564  f :     0.009619
      f+1     :     0.000045
      f-1     :     0.002349
      f+2     :     0.001684
      f-2     :     0.000997
      f+3     :     0.002454
      f-3     :     0.001527
 13 H s       :     0.815985  s :     0.815985
      pz      :     0.067679  p :     0.208781
      px      :     0.077849
      py      :     0.063253
      dz2     :     0.004467  d :     0.065991
      dxz     :     0.018205
      dyz     :     0.005936
      dx2y2   :     0.022118
      dxy     :     0.015266
      f0      :     0.001215  f :     0.009516
      f+1     :     0.000797
      f-1     :     0.000391
      f+2     :     0.000600
      f-2     :     0.001494
      f+3     :     0.003178
      f-3     :     0.001840
 14 O s       :     3.125911  s :     3.125911
      pz      :     1.431869  p :     4.340229
      px      :     1.505988
      py      :     1.402372
      dz2     :     0.012916  d :     0.099586
      dxz     :     0.004480
      dyz     :     0.026833
      dx2y2   :     0.025393
      dxy     :     0.029964
      f0      :     0.001251  f :     0.018341
      f+1     :     0.000157
      f-1     :     0.003513
      f+2     :     0.003161
      f-2     :     0.001870
      f+3     :     0.005130
      f-3     :     0.003259
      g0      :     0.000071  g :     0.000782
      g+1     :     0.000013
      g-1     :     0.000062
      g+2     :     0.000117
      g-2     :     0.000008
      g+3     :     0.000120
      g-3     :     0.000098
      g+4     :     0.000102
      g-4     :     0.000192
 15 Lis       :     2.070074  s :     2.070074
      pz      :     0.091529  p :     0.369239
      px      :     0.090631
      py      :     0.187079
      dz2     :     0.036139  d :     0.267473
      dxz     :     0.011710
      dyz     :     0.076928
      dx2y2   :     0.074269
      dxy     :     0.068427
      f0      :     0.011967  f :     0.144981
      f+1     :     0.001206
      f-1     :     0.031153
      f+2     :     0.027513
      f-2     :     0.013038
      f+3     :     0.030591
      f-3     :     0.029512
 16 O s       :     3.086162  s :     3.086162
      pz      :     1.537103  p :     4.214067
      px      :     1.212666
      py      :     1.464298
      dz2     :     0.015408  d :     0.183747
      dxz     :     0.037278
      dyz     :     0.015340
      dx2y2   :     0.057338
      dxy     :     0.058383
      f0      :     0.003228  f :     0.027764
      f+1     :     0.002304
      f-1     :     0.000874
      f+2     :     0.001137
      f-2     :     0.005211
      f+3     :     0.010398
      f-3     :     0.004612
      g0      :     0.000044  g :     0.000944
      g+1     :     0.000139
      g-1     :     0.000054
      g+2     :     0.000084
      g-2     :     0.000108
      g+3     :     0.000017
      g-3     :     0.000137
      g+4     :     0.000183
      g-4     :     0.000178
 17 C s       :     2.573774  s :     2.573774
      pz      :     0.979412  p :     2.676265
      px      :     0.751318
      py      :     0.945535
      dz2     :     0.082793  d :     0.524223
      dxz     :     0.079200
      dyz     :     0.110749
      dx2y2   :     0.082566
      dxy     :     0.168915
      f0      :     0.016784  f :     0.147664
      f+1     :     0.016920
      f-1     :     0.012258
      f+2     :     0.018803
      f-2     :     0.017178
      f+3     :     0.036478
      f-3     :     0.029244
      g0      :     0.000644  g :     0.013821
      g+1     :     0.002293
      g-1     :     0.000389
      g+2     :     0.000973
      g-2     :     0.001297
      g+3     :     0.000180
      g-3     :     0.002021
      g+4     :     0.003704
      g-4     :     0.002320
 18 H s       :     0.803751  s :     0.803751
      pz      :     0.076882  p :     0.185929
      px      :     0.037784
      py      :     0.071264
      dz2     :     0.021870  d :     0.064084
      dxz     :     0.009478
      dyz     :     0.014026
      dx2y2   :     0.008372
      dxy     :     0.010337
      f0      :     0.002142  f :     0.008868
      f+1     :     0.000486
      f-1     :     0.001924
      f+2     :     0.001539
      f-2     :     0.001690
      f+3     :     0.000557
      f-3     :     0.000530
 19 H s       :     0.804036  s :     0.804036
      pz      :     0.055533  p :     0.186730
      px      :     0.058889
      py      :     0.072308
      dz2     :     0.005116  d :     0.065054
      dxz     :     0.009659
      dyz     :     0.016922
      dx2y2   :     0.019698
      dxy     :     0.013658
      f0      :     0.001270  f :     0.009164
      f+1     :     0.000729
      f-1     :     0.000691
      f+2     :     0.000198
      f-2     :     0.002071
      f+3     :     0.002112
      f-3     :     0.002093
 20 H s       :     0.803352  s :     0.803352
      pz      :     0.086083  p :     0.186024
      px      :     0.037369
      py      :     0.062571
      dz2     :     0.021605  d :     0.064184
      dxz     :     0.013352
      dyz     :     0.018068
      dx2y2   :     0.004710
      dxy     :     0.006449
      f0      :     0.002786  f :     0.008879
      f+1     :     0.001130
      f-1     :     0.001997
      f+2     :     0.001214
      f-2     :     0.001381
      f+3     :     0.000190
      f-3     :     0.000181


                      *****************************
                      * MAYER POPULATION ANALYSIS *
                      *****************************

  NA   - Mulliken gross atomic population
  ZA   - Total nuclear charge
  QA   - Mulliken gross atomic charge
  VA   - Mayer's total valence
  BVA  - Mayer's bonded valence
  FA   - Mayer's free valence

  ATOM       NA         ZA         QA         VA         BVA        FA
  0 C      5.9026     6.0000     0.0974     3.9221     3.9221    -0.0000
  1 C      6.1164     6.0000    -0.1164     3.7773     3.7773    -0.0000
  2 C      6.1903     6.0000    -0.1903     3.9098     3.9098    -0.0000
  3 C      6.1333     6.0000    -0.1333     3.8079     3.8079    -0.0000
  4 C      5.9502     6.0000     0.0498     3.7259     3.7259     0.0000
  5 C      6.0269     6.0000    -0.0269     3.6011     3.6011    -0.0000
  6 H      0.9008     1.0000     0.0992     1.0083     1.0083    -0.0000
  7 H      0.8854     1.0000     0.1146     0.9977     0.9977    -0.0000
  8 H      0.8756     1.0000     0.1244     0.9829     0.9829     0.0000
  9 H      0.8929     1.0000     0.1071     0.9952     0.9952     0.0000
 10 C      5.8652     6.0000     0.1348     3.8711     3.8711     0.0000
 11 C      6.3853     6.0000    -0.3853     3.7824     3.7824    -0.0000
 12 H      0.9195     1.0000     0.0805     1.0270     1.0270    -0.0000
 13 H      0.8929     1.0000     0.1071     1.0045     1.0045    -0.0000
 14 O      8.4276     8.0000    -0.4276     2.2143     2.2143     0.0000
 15 Li     2.5151     3.0000     0.4849     0.9798     0.9798    -0.0000
 16 O      8.3819     8.0000    -0.3819     2.0587     2.0587    -0.0000
 17 C      6.0804     6.0000    -0.0804     3.8194     3.8194    -0.0000
 18 H      0.8927     1.0000     0.1073     0.9854     0.9854     0.0000
 19 H      0.8724     1.0000     0.1276     0.9800     0.9800     0.0000
 20 H      0.8926     1.0000     0.1074     0.9861     0.9861    -0.0000

  Mayer bond orders larger than 0.100000
B(  0-C ,  1-C ) :   1.3555 B(  0-C ,  5-C ) :   1.2948 B(  0-C , 16-O ) :   1.1202 
B(  1-C ,  2-C ) :   1.3395 B(  1-C ,  7-H ) :   0.9557 B(  2-C ,  3-C ) :   1.4388 
B(  2-C ,  8-H ) :   0.9535 B(  3-C ,  4-C ) :   1.2829 B(  3-C ,  9-H ) :   0.9561 
B(  4-C ,  5-C ) :   1.3143 B(  4-C , 10-C ) :   0.9684 B(  5-C ,  6-H ) :   0.9548 
B( 10-C , 11-C ) :   1.6764 B( 10-C , 14-O ) :   1.1843 B( 11-C , 12-H ) :   0.9808 
B( 11-C , 13-H ) :   0.9682 B( 14-O , 15-Li) :   0.9158 B( 16-O , 17-C ) :   0.9037 
B( 17-C , 18-H ) :   0.9621 B( 17-C , 19-H ) :   0.9682 B( 17-C , 20-H ) :   0.9613 


-------
TIMINGS
-------

Total SCF time: 0 days 0 hours 10 min 50 sec 

Total time                  ....     650.298 sec
Sum of individual times     ....     643.788 sec  ( 99.0%)

Fock matrix formation       ....     609.195 sec  ( 93.7%)
  XC integration            ....     203.247 sec  ( 33.4% of F)
    Basis function eval.    ....      14.262 sec  (  7.0% of XC)
    Density eval.           ....      87.879 sec  ( 43.2% of XC)
    XC-Functional eval.     ....       2.722 sec  (  1.3% of XC)
    XC-Potential eval.      ....      90.138 sec  ( 44.3% of XC)
Diagonalization             ....      11.303 sec  (  1.7%)
Density matrix formation    ....       0.324 sec  (  0.0%)
Population analysis         ....       0.948 sec  (  0.1%)
Initial guess               ....       5.254 sec  (  0.8%)
Orbital Transformation      ....       0.000 sec  (  0.0%)
Orbital Orthonormalization  ....       0.000 sec  (  0.0%)
DIIS solution               ....       4.685 sec  (  0.7%)
SOSCF solution              ....       7.138 sec  (  1.1%)
Grid generation             ....       4.941 sec  (  0.8%)

Maximum memory used throughout the entire SCF-calculation: 286.6 MB


-------------------------------------------------------------------------------
                          DFT DISPERSION CORRECTION                            
                                                                               
                              DFTD3 V3.1  Rev 1                                
                          USING Becke-Johnson damping                          
-------------------------------------------------------------------------------
The PW6B95 functional is recognized
Active option DFTDOPT                   ...         4   

molecular C6(AA) [au] = 5598.695277 


            DFT-D V3
 parameters
 s6 scaling factor         :     1.0000 
 a1 scaling factor         :     0.2076 
 s8 scaling factor         :     0.7257 
 a2 scaling factor         :     6.3750 
 ad hoc parameters k1-k3   :    16.0000     1.3333    -4.0000 

 Edisp/kcal,au: -7.378128086568  -0.011757794272 
 E6   /kcal   :  -5.530356622 
 E8   /kcal   :  -1.847771465 
 % E8         :  25.043906027 

-------------------------   ----------------
Dispersion correction           -0.011757794
-------------------------   ----------------


-------------------------   --------------------
FINAL SINGLE POINT ENERGY      -507.259467628089
-------------------------   --------------------


                            ***************************************
                            *     ORCA property calculations      *
                            ***************************************

                                    ---------------------
                                    Active property flags
                                    ---------------------
   (+) Dipole Moment


------------------------------------------------------------------------------
                       ORCA ELECTRIC PROPERTIES CALCULATION
------------------------------------------------------------------------------

Dipole Moment Calculation                       ... on
Quadrupole Moment Calculation                   ... off
Polarizability Calculation                      ... off
GBWName                                         ... Keton-Li_sp.gbw
Electron density                                ... Keton-Li_sp.scfp
The origin for moment calculation is the CENTER OF MASS  = (-3.251978,  3.084719 -0.184468)

-------------
DIPOLE MOMENT
-------------
                                X             Y             Z
Electronic contribution:      6.72396      11.69842      -3.86023
Nuclear contribution   :     -7.64698      -9.24179       2.80308
                        -----------------------------------------
Total Dipole Moment    :     -0.92301       2.45663      -1.05716
                        -----------------------------------------
Magnitude (a.u.)       :      2.82923
Magnitude (Debye)      :      7.19134



--------------------
Rotational spectrum 
--------------------
 
Rotational constants in cm-1:     0.060471     0.021130     0.015833 
Rotational constants in MHz :  1812.869389   633.460779   474.647750 

 Dipole components along the rotational axes: 
x,y,z [a.u.] :    -0.317111     2.761407    -0.527856 
x,y,z [Debye]:    -0.806032     7.018939    -1.341703 

 

Timings for individual modules:

Sum of individual times         ...      656.456 sec (=  10.941 min)
GTO integral calculation        ...        5.544 sec (=   0.092 min)   0.8 %
SCF iterations                  ...      650.911 sec (=  10.849 min)  99.2 %
                             ****ORCA TERMINATED NORMALLY****
TOTAL RUN TIME: 0 days 0 hours 10 minutes 58 seconds 925 msec
‘Keton-Li_freqopt.hess’ -> ‘/home/rothe/Calc/Li_Path/THF/Keton-Li/Keton-Li_freqopt.hess’
‘Keton-Li_freqopt.opt’ -> ‘/home/rothe/Calc/Li_Path/THF/Keton-Li/Keton-Li_freqopt.opt’
‘Keton-Li_sp.cpcm’ -> ‘/home/rothe/Calc/Li_Path/THF/Keton-Li/Keton-Li_sp.cpcm’
‘Keton-Li_sp.densities’ -> ‘/home/rothe/Calc/Li_Path/THF/Keton-Li/Keton-Li_sp.densities’
‘Keton-Li_sp.gbw’ -> ‘/home/rothe/Calc/Li_Path/THF/Keton-Li/Keton-Li_sp.gbw’
‘Keton-Li_sp.job’ -> ‘/home/rothe/Calc/Li_Path/THF/Keton-Li/Keton-Li_sp.job’
‘Keton-Li_sp_property.txt’ -> ‘/home/rothe/Calc/Li_Path/THF/Keton-Li/Keton-Li_sp_property.txt’
