! Job execution by suborca V 5.02 !
Job started from clu.thch.uni-bonn.de, running /software/cluster/orca_5_0_2_linux_x86-64_openmpi411/orca from /software/cluster/orca_5_0_2_linux_x86-64_openmpi411 on boar229 in /tmp1/rothe/Keton_freqopt__ctPgwp
Going to copy the following really necessary files:  

                                 *****************
                                 * O   R   C   A *
                                 *****************

                                            #,                                       
                                            ###                                      
                                            ####                                     
                                            #####                                    
                                            ######                                   
                                           ########,                                 
                                     ,,################,,,,,                         
                               ,,#################################,,                 
                          ,,##########################################,,             
                       ,#########################################, ''#####,          
                    ,#############################################,,   '####,        
                  ,##################################################,,,,####,       
                ,###########''''           ''''###############################       
              ,#####''   ,,,,##########,,,,          '''####'''          '####       
            ,##' ,,,,###########################,,,                        '##       
           ' ,,###''''                  '''############,,,                           
         ,,##''                                '''############,,,,        ,,,,,,###''
      ,#''                                            '''#######################'''  
     '                                                          ''''####''''         
             ,#######,   #######,   ,#######,      ##                                
            ,#'     '#,  ##    ##  ,#'     '#,    #''#        ######   ,####,        
            ##       ##  ##   ,#'  ##            #'  '#       #        #'  '#        
            ##       ##  #######   ##           ,######,      #####,   #    #        
            '#,     ,#'  ##    ##  '#,     ,#' ,#      #,         ##   #,  ,#        
             '#######'   ##     ##  '#######'  #'      '#     #####' # '####'        



                  #######################################################
                  #                        -***-                        #
                  #          Department of theory and spectroscopy      #
                  #    Directorship and core code : Frank Neese         #
                  #        Max Planck Institute fuer Kohlenforschung    #
                  #                Kaiser Wilhelm Platz 1               #
                  #                 D-45470 Muelheim/Ruhr               #
                  #                      Germany                        #
                  #                                                     #
                  #                  All rights reserved                #
                  #                        -***-                        #
                  #######################################################


                         Program Version 5.0.2 -  RELEASE  -


 With contributions from (in alphabetic order):
   Daniel Aravena         : Magnetic Suceptibility
   Michael Atanasov       : Ab Initio Ligand Field Theory (pilot matlab implementation)
   Alexander A. Auer      : GIAO ZORA, VPT2 properties, NMR spectrum
   Ute Becker             : Parallelization
   Giovanni Bistoni       : ED, misc. LED, open-shell LED, HFLD
   Martin Brehm           : Molecular dynamics
   Dmytro Bykov           : SCF Hessian
   Vijay G. Chilkuri      : MRCI spin determinant printing, contributions to CSF-ICE
   Dipayan Datta          : RHF DLPNO-CCSD density
   Achintya Kumar Dutta   : EOM-CC, STEOM-CC
   Dmitry Ganyushin       : Spin-Orbit,Spin-Spin,Magnetic field MRCI
   Miquel Garcia          : C-PCM and meta-GGA Hessian, CC/C-PCM, Gaussian charge scheme
   Yang Guo               : DLPNO-NEVPT2, F12-NEVPT2, CIM, IAO-localization
   Andreas Hansen         : Spin unrestricted coupled pair/coupled cluster methods
   Benjamin Helmich-Paris : MC-RPA, TRAH-SCF, COSX integrals
   Lee Huntington         : MR-EOM, pCC
   Robert Izsak           : Overlap fitted RIJCOSX, COSX-SCS-MP3, EOM
   Marcus Kettner         : VPT2
   Christian Kollmar      : KDIIS, OOCD, Brueckner-CCSD(T), CCSD density, CASPT2, CASPT2-K
   Simone Kossmann        : Meta GGA functionals, TD-DFT gradient, OOMP2, MP2 Hessian
   Martin Krupicka        : Initial AUTO-CI
   Lucas Lang             : DCDCAS
   Marvin Lechner         : AUTO-CI (C++ implementation), FIC-MRCC
   Dagmar Lenk            : GEPOL surface, SMD
   Dimitrios Liakos       : Extrapolation schemes; Compound Job, initial MDCI parallelization
   Dimitrios Manganas     : Further ROCIS development; embedding schemes
   Dimitrios Pantazis     : SARC Basis sets
   Anastasios Papadopoulos: AUTO-CI, single reference methods and gradients
   Taras Petrenko         : DFT Hessian,TD-DFT gradient, ASA, ECA, R-Raman, ABS, FL, XAS/XES, NRVS
   Peter Pinski           : DLPNO-MP2, DLPNO-MP2 Gradient
   Christoph Reimann      : Effective Core Potentials
   Marius Retegan         : Local ZFS, SOC
   Christoph Riplinger    : Optimizer, TS searches, QM/MM, DLPNO-CCSD(T), (RO)-DLPNO pert. Triples
   Tobias Risthaus        : Range-separated hybrids, TD-DFT gradient, RPA, STAB
   Michael Roemelt        : Original ROCIS implementation
   Masaaki Saitow         : Open-shell DLPNO-CCSD energy and density
   Barbara Sandhoefer     : DKH picture change effects
   Avijit Sen             : IP-ROCIS
   Kantharuban Sivalingam : CASSCF convergence, NEVPT2, FIC-MRCI
   Bernardo de Souza      : ESD, SOC TD-DFT
   Georgi Stoychev        : AutoAux, RI-MP2 NMR, DLPNO-MP2 response
   Willem Van den Heuvel  : Paramagnetic NMR
   Boris Wezisla          : Elementary symmetry handling
   Frank Wennmohs         : Technical directorship


 We gratefully acknowledge several colleagues who have allowed us to
 interface, adapt or use parts of their codes:
   Stefan Grimme, W. Hujo, H. Kruse, P. Pracht,  : VdW corrections, initial TS optimization,
                  C. Bannwarth, S. Ehlert          DFT functionals, gCP, sTDA/sTD-DF
   Ed Valeev, F. Pavosevic, A. Kumar             : LibInt (2-el integral package), F12 methods
   Garnet Chan, S. Sharma, J. Yang, R. Olivares  : DMRG
   Ulf Ekstrom                                   : XCFun DFT Library
   Mihaly Kallay                                 : mrcc  (arbitrary order and MRCC methods)
   Jiri Pittner, Ondrej Demel                    : Mk-CCSD
   Frank Weinhold                                : gennbo (NPA and NBO analysis)
   Christopher J. Cramer and Donald G. Truhlar   : smd solvation model
   Lars Goerigk                                  : TD-DFT with DH, B97 family of functionals
   V. Asgeirsson, H. Jonsson                     : NEB implementation
   FAccTs GmbH                                   : IRC, NEB, NEB-TS, DLPNO-Multilevel, CI-OPT
                                                   MM, QMMM, 2- and 3-layer-ONIOM, Crystal-QMMM,
                                                   LR-CPCM, SF, NACMEs, symmetry and pop. for TD-DFT,
                                                   nearIR, NL-DFT gradient (VV10), updates on ESD,
                                                   ML-optimized integration grids
   S Lehtola, MJT Oliveira, MAL Marques          : LibXC Library
   Liviu Ungur et al                             : ANISO software


 Your calculation uses the libint2 library for the computation of 2-el integrals
 For citations please refer to: http://libint.valeyev.net

 Your ORCA version has been built with support for libXC version: 5.1.0
 For citations please refer to: https://tddft.org/programs/libxc/

 This ORCA versions uses:
   CBLAS   interface :  Fast vector & matrix operations
   LAPACKE interface :  Fast linear algebra routines
   SCALAPACK package :  Parallel linear algebra routines
   Shared memory     :  Shared parallel matrices
   BLAS/LAPACK       :  OpenBLAS 0.3.15  USE64BITINT DYNAMIC_ARCH NO_AFFINITY Barcelona SINGLE_THREADED
        Core in use  :  Barcelona
   Copyright (c) 2011-2014, The OpenBLAS Project


Your calculation utilizes the atom-pairwise dispersion correction
with the Becke-Johnson damping scheme (D3BJ)
Cite in your paper:
S.Grimme, S.Ehrlich, L.Goerigk, J Comput Chem, (2011), 32, 1456–1465 
S.Grimme, J.Antony, S.Ehrlich and H.Krieg, J.Chem.Phys., 132, (2010), 154104 
   

================================================================================

----- Orbital basis set information -----
Your calculation utilizes the basis: def2-TZVP
   F. Weigend and R. Ahlrichs, Phys. Chem. Chem. Phys. 7, 3297 (2005).

----- AuxJ basis set information -----
Your calculation utilizes the auxiliary basis: def2/J
   F. Weigend, Phys. Chem. Chem. Phys. 8, 1057 (2006).

================================================================================
                                        WARNINGS
                       Please study these warnings very carefully!
================================================================================


WARNING: Geometry Optimization
  ===> : Switching off AutoStart
         For restart on a previous wavefunction, please use MOREAD

INFO   : the flag for use of the SHARK integral package has been found!

================================================================================
                                       INPUT FILE
================================================================================
NAME = Keton_freqopt.inp
|  1> ! TPSS D3BJ def2-TZVP RI def2/J  CPCM(THF)
|  2> ! Opt numfreq Pal8
|  3> 
|  4> *xyz 0 1
|  5> C        -2.91080564055299   -0.04778620315128    0.22289217444191
|  6> C        -2.87031749902024   -1.43915857592650    0.22004925807772
|  7> C        -1.64635891418826   -2.09116883638061    0.21748060258631
|  8> C        -0.45914495371701   -1.38767720960777    0.21800816174580
|  9> C        -0.48658242985301    0.00863646045207    0.22128059912244
| 10> C        -1.71245073588201    0.66250182209066    0.22346070892279
| 11> H        -1.73734981649373    1.74122290545333    0.22579516023065
| 12> H        -3.77692170480557   -2.02351373377395    0.21968332651940
| 13> H        -1.62928180203763   -3.17150045422719    0.21502923975730
| 14> H         0.47480333575072   -1.92553016274946    0.21551816650811
| 15> C         0.73941615219600    0.85129538553489    0.22257625764124
| 16> C         2.06638505091861    0.13065413534171    0.22647840764639
| 17> H         2.14517923361168   -0.50322578743595    1.10677335574340
| 18> H         2.87071097961000    0.86166989916221    0.23572102986430
| 19> H         2.15528454291910   -0.49070488300505   -0.66200368963644
| 20> O         0.67682813087411    2.06002866121782    0.21928609965912
| 21> O        -4.04513803576070    0.69925292352178    0.22513108471276
| 22> C        -5.28895088354745    0.04187411372702    0.22339476073614
| 23> H        -6.03843554498005    0.83128601980043    0.22459724070307
| 24> H        -5.41794942488240   -0.57920920007046    1.11600044025133
| 25> H        -5.41721713115917   -0.57579724857369   -0.67167788683373
| 26> *
| 27> 
| 28>                          ****END OF INPUT****
================================================================================

                       *****************************
                       * Geometry Optimization Run *
                       *****************************

Geometry optimization settings:
Update method            Update   .... BFGS
Choice of coordinates    CoordSys .... Z-matrix Internals
Initial Hessian          InHess   .... Almoef's Model

Convergence Tolerances:
Energy Change            TolE     ....  5.0000e-06 Eh
Max. Gradient            TolMAXG  ....  3.0000e-04 Eh/bohr
RMS Gradient             TolRMSG  ....  1.0000e-04 Eh/bohr
Max. Displacement        TolMAXD  ....  4.0000e-03 bohr
RMS Displacement         TolRMSD  ....  2.0000e-03 bohr
Strict Convergence                ....  False
------------------------------------------------------------------------------
                        ORCA OPTIMIZATION COORDINATE SETUP
------------------------------------------------------------------------------

The optimization will be done in new redundant internal coordinates
Making redundant internal coordinates   ...  (new redundants) done
Evaluating the initial hessian          ...  (Almloef) done
Evaluating the coordinates              ...  done
Calculating the B-matrix                .... done
Calculating the G-matrix                .... done
Diagonalizing the G-matrix              .... done
Small eigenvalue found = 1.433e-02
Small eigenvalue found = 2.932e-02
The first mode is                       ....   37
The number of degrees of freedom        ....   57

    -----------------------------------------------------------------
                    Redundant Internal Coordinates


    -----------------------------------------------------------------
         Definition                    Initial Value    Approx d2E/dq
    -----------------------------------------------------------------
      1. B(C   1,C   0)                  1.3920         0.620304   
      2. B(C   2,C   1)                  1.3868         0.632198   
      3. B(C   3,C   2)                  1.3800         0.648195   
      4. B(C   4,C   3)                  1.3966         0.609859   
      5. B(C   5,C   0)                  1.3930         0.617855   
      6. B(C   5,C   4)                  1.3894         0.626287   
      7. B(H   6,C   5)                  1.0790         0.374935   
      8. B(H   7,C   1)                  1.0786         0.375485   
      9. B(H   8,C   2)                  1.0805         0.372931   
     10. B(H   9,C   3)                  1.0778         0.376671   
     11. B(C  10,C   4)                  1.4877         0.436435   
     12. B(C  11,C  10)                  1.5100         0.402014   
     13. B(H  12,C  11)                  1.0876         0.363254   
     14. B(H  13,C  11)                  1.0869         0.364189   
     15. B(H  14,C  11)                  1.0878         0.362972   
     16. B(O  15,C  10)                  1.2104         1.082641   
     17. B(O  16,C   0)                  1.3582         0.628878   
     18. B(C  17,O  16)                  1.4068         0.526013   
     19. B(H  18,C  17)                  1.0885         0.362048   
     20. B(H  19,C  17)                  1.0950         0.353484   
     21. B(H  20,C  17)                  1.0950         0.353487   
     22. A(C   1,C   0,O  16)          125.0347         0.432368   
     23. A(C   1,C   0,C   5)          118.9892         0.433834   
     24. A(C   5,C   0,O  16)          115.9761         0.432060   
     25. A(C   2,C   1,H   7)          119.1514         0.356597   
     26. A(C   0,C   1,H   7)          121.1371         0.355449   
     27. A(C   0,C   1,C   2)          119.7114         0.435629   
     28. A(C   1,C   2,C   3)          121.3062         0.439097   
     29. A(C   3,C   2,H   8)          119.7435         0.357700   
     30. A(C   1,C   2,H   8)          118.9503         0.356184   
     31. A(C   2,C   3,H   9)          119.4134         0.358307   
     32. A(C   4,C   3,H   9)          121.0632         0.354617   
     33. A(C   2,C   3,C   4)          119.5234         0.436258   
     34. A(C   5,C   4,C  10)          117.4232         0.408436   
     35. A(C   3,C   4,C  10)          123.3760         0.406520   
     36. A(C   3,C   4,C   5)          119.2008         0.433566   
     37. A(C   0,C   5,H   6)          119.3338         0.355123   
     38. A(C   0,C   5,C   4)          121.2689         0.434584   
     39. A(C   4,C   5,H   6)          119.3974         0.355940   
     40. A(C  11,C  10,O  15)          121.4695         0.440984   
     41. A(C   4,C  10,O  15)          121.5373         0.447590   
     42. A(C   4,C  10,C  11)          116.9931         0.377939   
     43. A(H  13,C  11,H  14)          109.3067         0.291720   
     44. A(H  12,C  11,H  14)          108.7981         0.291602   
     45. A(C  10,C  11,H  14)          110.0168         0.328690   
     46. A(H  12,C  11,H  13)          109.3585         0.291756   
     47. A(C  10,C  11,H  13)          109.2291         0.328871   
     48. A(C  10,C  11,H  12)          110.1143         0.328732   
     49. A(C   0,O  16,C  17)          118.7747         0.417068   
     50. A(H  18,C  17,H  19)          109.2269         0.290240   
     51. A(O  16,C  17,H  19)          111.6027         0.340121   
     52. A(O  16,C  17,H  18)          105.6564         0.341486   
     53. A(H  19,C  17,H  20)          109.4239         0.289153   
     54. A(H  18,C  17,H  20)          109.2272         0.290240   
     55. A(O  16,C  17,H  20)          111.6007         0.340122   
     56. D(C   2,C   1,C   0,C   5)     -0.0173         0.026627   
     57. D(H   7,C   1,C   0,C   5)    179.9901         0.026627   
     58. D(H   7,C   1,C   0,O  16)     -0.0147         0.026627   
     59. D(C   2,C   1,C   0,O  16)    179.9779         0.026627   
     60. D(C   3,C   2,C   1,C   0)      0.0160         0.027724   
     61. D(C   3,C   2,C   1,H   7)   -179.9913         0.027724   
     62. D(H   8,C   2,C   1,H   7)      0.0084         0.027724   
     63. D(H   8,C   2,C   1,C   0)   -179.9843         0.027724   
     64. D(H   9,C   3,C   2,H   8)      0.0271         0.029243   
     65. D(H   9,C   3,C   2,C   1)   -179.9732         0.029243   
     66. D(C   4,C   3,C   2,H   8)   -179.9953         0.029243   
     67. D(C   4,C   3,C   2,C   1)      0.0044         0.029243   
     68. D(C  10,C   4,C   3,C   2)    179.9778         0.025686   
     69. D(C   5,C   4,C   3,H   9)    179.9543         0.025686   
     70. D(C   5,C   4,C   3,C   2)     -0.0229         0.025686   
     71. D(C  10,C   4,C   3,H   9)     -0.0450         0.025686   
     72. D(H   6,C   5,C   4,C  10)      0.0112         0.027175   
     73. D(C   0,C   5,C   4,C  10)   -179.9791         0.027175   
     74. D(C   0,C   5,C   4,C   3)      0.0216         0.027175   
     75. D(H   6,C   5,C   0,O  16)      0.0126         0.026405   
     76. D(H   6,C   5,C   0,C   1)   -179.9918         0.026405   
     77. D(H   6,C   5,C   4,C   3)   -179.9881         0.027175   
     78. D(C   4,C   5,C   0,O  16)   -179.9971         0.026405   
     79. D(C   4,C   5,C   0,C   1)     -0.0014         0.026405   
     80. D(O  15,C  10,C   4,C   5)     -0.3405         0.013002   
     81. D(O  15,C  10,C   4,C   3)    179.6587         0.013002   
     82. D(C  11,C  10,C   4,C   5)    179.7321         0.013002   
     83. D(C  11,C  10,C   4,C   3)     -0.2686         0.013002   
     84. D(H  13,C  11,C  10,C   4)   -179.5162         0.011989   
     85. D(H  12,C  11,C  10,O  15)    120.6629         0.011989   
     86. D(H  12,C  11,C  10,C   4)    -59.4096         0.011989   
     87. D(H  14,C  11,C  10,O  15)   -119.4267         0.011989   
     88. D(H  14,C  11,C  10,C   4)     60.5007         0.011989   
     89. D(H  13,C  11,C  10,O  15)      0.5563         0.011989   
     90. D(C  17,O  16,C   0,C   5)    179.9395         0.029077   
     91. D(C  17,O  16,C   0,C   1)     -0.0558         0.029077   
     92. D(H  20,C  17,O  16,C   0)    -61.3316         0.021958   
     93. D(H  19,C  17,O  16,C   0)     61.4530         0.021958   
     94. D(H  18,C  17,O  16,C   0)   -179.9390         0.021958   
    -----------------------------------------------------------------

Number of atoms                         .... 21
Number of degrees of freedom            .... 94

         *************************************************************
         *                GEOMETRY OPTIMIZATION CYCLE   1            *
         *************************************************************
---------------------------------
CARTESIAN COORDINATES (ANGSTROEM)
---------------------------------
  C     -2.910806   -0.047786    0.222892
  C     -2.870317   -1.439159    0.220049
  C     -1.646359   -2.091169    0.217481
  C     -0.459145   -1.387677    0.218008
  C     -0.486582    0.008636    0.221281
  C     -1.712451    0.662502    0.223461
  H     -1.737350    1.741223    0.225795
  H     -3.776922   -2.023514    0.219683
  H     -1.629282   -3.171500    0.215029
  H      0.474803   -1.925530    0.215518
  C      0.739416    0.851295    0.222576
  C      2.066385    0.130654    0.226478
  H      2.145179   -0.503226    1.106773
  H      2.870711    0.861670    0.235721
  H      2.155285   -0.490705   -0.662004
  O      0.676828    2.060029    0.219286
  O     -4.045138    0.699253    0.225131
  C     -5.288951    0.041874    0.223395
  H     -6.038436    0.831286    0.224597
  H     -5.417949   -0.579209    1.116000
  H     -5.417217   -0.575797   -0.671678

----------------------------
CARTESIAN COORDINATES (A.U.)
----------------------------
  NO LB      ZA    FRAG     MASS         X           Y           Z
   0 C     6.0000    0    12.011   -5.500625   -0.090303    0.421205
   1 C     6.0000    0    12.011   -5.424114   -2.719616    0.415833
   2 C     6.0000    0    12.011   -3.111167   -3.951736    0.410979
   3 C     6.0000    0    12.011   -0.867658   -2.622330    0.411976
   4 C     6.0000    0    12.011   -0.919508    0.016321    0.418160
   5 C     6.0000    0    12.011   -3.236063    1.251947    0.422280
   6 H     1.0000    0     1.008   -3.283115    3.290434    0.426691
   7 H     1.0000    0     1.008   -7.137348   -3.823887    0.415141
   8 H     1.0000    0     1.008   -3.078896   -5.993267    0.406346
   9 H     1.0000    0     1.008    0.897248   -3.638725    0.407270
  10 C     6.0000    0    12.011    1.397294    1.608715    0.420608
  11 C     6.0000    0    12.011    3.904902    0.246901    0.427982
  12 H     1.0000    0     1.008    4.053801   -0.950959    2.091499
  13 H     1.0000    0     1.008    5.424858    1.628320    0.445448
  14 H     1.0000    0     1.008    4.072898   -0.927298   -1.251006
  15 O     8.0000    0    15.999    1.279020    3.892890    0.414391
  16 O     8.0000    0    15.999   -7.644203    1.321397    0.425436
  17 C     6.0000    0    12.011   -9.994669    0.079131    0.422155
  18 H     1.0000    0     1.008  -11.410989    1.570903    0.424427
  19 H     1.0000    0     1.008  -10.238441   -1.094547    2.108935
  20 H     1.0000    0     1.008  -10.237057   -1.088099   -1.269287

--------------------------------
INTERNAL COORDINATES (ANGSTROEM)
--------------------------------
 C      0   0   0     0.000000000000     0.00000000     0.00000000
 C      1   0   0     1.391964242177     0.00000000     0.00000000
 C      2   1   0     1.386794359345   119.71143180     0.00000000
 C      3   2   1     1.379991933018   121.30624042     0.00000000
 C      4   3   2     1.396587050326   119.52340128     0.00000000
 C      5   4   3     1.389351563772   119.20082280     0.00000000
 H      6   5   4     1.079010931163   119.39737171   180.01192415
 H      2   1   3     1.078611269344   121.13712492   180.00742661
 H      3   2   1     1.080469361647   118.95025706   180.01567838
 H      4   3   2     1.077752943248   119.41342826   180.02678060
 C      5   4   3     1.487665374316   123.37600482   179.97783008
 C     11   5   4     1.510028309811   116.99314051   359.73136084
 H     12  11   5     1.087626533040   110.11426867   300.59036429
 H     12  11   5     1.086926709850   109.22905241   180.48377858
 H     12  11   5     1.087837573607   110.01678241    60.50074603
 O     11   5   4     1.210357061902   121.53727456   179.65874132
 O      1   2   3     1.358227687951   125.03466757   179.97789265
 C     17   1   2     1.406847651563   118.77472822   359.94415310
 H     18  17   1     1.088531056576   105.65636410   180.06103584
 H     18  17   1     1.095047946643   111.60268668    61.45295121
 H     18  17   1     1.095045746310   111.60074054   298.66843630

---------------------------
INTERNAL COORDINATES (A.U.)
---------------------------
 C      0   0   0     0.000000000000     0.00000000     0.00000000
 C      1   0   0     2.630431205926     0.00000000     0.00000000
 C      2   1   0     2.620661543230   119.71143180     0.00000000
 C      3   2   1     2.607806820425   121.30624042     0.00000000
 C      4   3   2     2.639167047298   119.52340128     0.00000000
 C      5   4   3     2.625493959264   119.20082280     0.00000000
 H      6   5   4     2.039035155406   119.39737171   180.01192415
 H      2   1   3     2.038279904022   121.13712492   180.00742661
 H      3   2   1     2.041791189606   118.95025706   180.01567838
 H      4   3   2     2.036657902766   119.41342826   180.02678060
 C      5   4   3     2.811280136375   123.37600482   179.97783008
 C     11   5   4     2.853539960011   116.99314051   359.73136084
 H     12  11   5     2.055316283431   110.11426867   300.59036429
 H     12  11   5     2.053993809260   109.22905241   180.48377858
 H     12  11   5     2.055715092306   110.01678241    60.50074603
 O     11   5   4     2.287243371252   121.53727456   179.65874132
 O      1   2   3     2.566678357737   125.03466757   179.97789265
 C     17   1   2     2.658556773604   118.77472822   359.94415310
 H     18  17   1     2.057025585197   105.65636410   180.06103584
 H     18  17   1     2.069340722668   111.60268668    61.45295121
 H     18  17   1     2.069336564640   111.60074054   298.66843630

---------------------
BASIS SET INFORMATION
---------------------
There are 3 groups of distinct atoms

 Group   1 Type C   : 11s6p2d1f contracted to 5s3p2d1f pattern {62111/411/11/1}
 Group   2 Type H   : 5s1p contracted to 3s1p pattern {311/1}
 Group   3 Type O   : 11s6p2d1f contracted to 5s3p2d1f pattern {62111/411/11/1}

Atom   0C    basis set group =>   1
Atom   1C    basis set group =>   1
Atom   2C    basis set group =>   1
Atom   3C    basis set group =>   1
Atom   4C    basis set group =>   1
Atom   5C    basis set group =>   1
Atom   6H    basis set group =>   2
Atom   7H    basis set group =>   2
Atom   8H    basis set group =>   2
Atom   9H    basis set group =>   2
Atom  10C    basis set group =>   1
Atom  11C    basis set group =>   1
Atom  12H    basis set group =>   2
Atom  13H    basis set group =>   2
Atom  14H    basis set group =>   2
Atom  15O    basis set group =>   3
Atom  16O    basis set group =>   3
Atom  17C    basis set group =>   1
Atom  18H    basis set group =>   2
Atom  19H    basis set group =>   2
Atom  20H    basis set group =>   2
---------------------------------
AUXILIARY/J BASIS SET INFORMATION
---------------------------------
There are 3 groups of distinct atoms

 Group   1 Type C   : 12s5p4d2f1g contracted to 6s4p3d1f1g pattern {711111/2111/211/2/1}
 Group   2 Type H   : 5s2p1d contracted to 3s1p1d pattern {311/2/1}
 Group   3 Type O   : 12s5p4d2f1g contracted to 6s4p3d1f1g pattern {711111/2111/211/2/1}

Atom   0C    basis set group =>   1
Atom   1C    basis set group =>   1
Atom   2C    basis set group =>   1
Atom   3C    basis set group =>   1
Atom   4C    basis set group =>   1
Atom   5C    basis set group =>   1
Atom   6H    basis set group =>   2
Atom   7H    basis set group =>   2
Atom   8H    basis set group =>   2
Atom   9H    basis set group =>   2
Atom  10C    basis set group =>   1
Atom  11C    basis set group =>   1
Atom  12H    basis set group =>   2
Atom  13H    basis set group =>   2
Atom  14H    basis set group =>   2
Atom  15O    basis set group =>   3
Atom  16O    basis set group =>   3
Atom  17C    basis set group =>   1
Atom  18H    basis set group =>   2
Atom  19H    basis set group =>   2
Atom  20H    basis set group =>   2


           ************************************************************
           *        Program running with 8 parallel MPI-processes     *
           *              working on a common directory               *
           ************************************************************
------------------------------------------------------------------------------
                           ORCA GTO INTEGRAL CALCULATION
                           -- RI-GTO INTEGRALS CHOSEN --
------------------------------------------------------------------------------
------------------------------------------------------------------------------
                   ___                                                        
                  /   \      - P O W E R E D   B Y -                         
                 /     \                                                     
                 |  |  |   _    _      __       _____    __    __             
                 |  |  |  | |  | |    /  \     |  _  \  |  |  /  |          
                  \  \/   | |  | |   /    \    | | | |  |  | /  /          
                 / \  \   | |__| |  /  /\  \   | |_| |  |  |/  /          
                |  |  |   |  __  | /  /__\  \  |    /   |      \           
                |  |  |   | |  | | |   __   |  |    \   |  |\   \          
                \     /   | |  | | |  |  |  |  | |\  \  |  | \   \       
                 \___/    |_|  |_| |__|  |__|  |_| \__\ |__|  \__/        
                                                                              
                      - O R C A' S   B I G   F R I E N D -                    
                                      &                                       
                       - I N T E G R A L  F E E D E R -                       
                                                                              
 v1 FN, 2020, v2 2021                                                         
------------------------------------------------------------------------------


Reading SHARK input file Keton_freqopt.SHARKINP.tmp ... ok
----------------------
SHARK INTEGRAL PACKAGE
----------------------

Number of atoms                             ...     21
Number of basis functions                   ...    401
Number of shells                            ...    161
Maximum angular momentum                    ...      3
Integral batch strategy                     ... SHARK/LIBINT Hybrid
RI-J (if used) integral strategy            ... SPLIT-RIJ (Revised 2003 algorithm where possible)
Printlevel                                  ...      1
Contraction scheme used                     ... SEGMENTED contraction
Coulomb Range Separation                    ... NOT USED
Exchange Range Separation                   ... NOT USED
Finite Nucleus Model                        ... NOT USED
Auxiliary Coulomb fitting basis             ... AVAILABLE
   # of basis functions in Aux-J            ...    649
   # of shells in Aux-J                     ...    215
   Maximum angular momentum in Aux-J        ...      4
Auxiliary J/K fitting basis                 ... NOT available
Auxiliary Correlation fitting basis         ... NOT available
Auxiliary 'external' fitting basis          ... NOT available
Integral threshold                          ...     2.500000e-11
Primitive cut-off                           ...     2.500000e-12
Primitive pair pre-selection threshold      ...     2.500000e-12

Calculating pre-screening integrals         ... done (  0.1 sec) Dimension = 161
Organizing shell pair data                  ... done (  0.2 sec)
Shell pair information
Total number of shell pairs                 ...     13041
Shell pairs after pre-screening             ...     10956
Total number of primitive shell pairs       ...     39612
Primitive shell pairs kept                  ...     24142
          la=0 lb=0:   2933 shell pairs
          la=1 lb=0:   3108 shell pairs
          la=1 lb=1:    844 shell pairs
          la=2 lb=0:   1577 shell pairs
          la=2 lb=1:    841 shell pairs
          la=2 lb=2:    224 shell pairs
          la=3 lb=0:    761 shell pairs
          la=3 lb=1:    405 shell pairs
          la=3 lb=2:    206 shell pairs
          la=3 lb=3:     57 shell pairs

Calculating one electron integrals          ... done (  0.0 sec)
Calculating RI/J V-Matrix + Cholesky decomp.... done (  0.1 sec)
Calculating Nuclear repulsion               ... done (  0.0 sec) ENN=    576.552614399977 Eh

SHARK setup successfully completed in   0.9 seconds

Maximum memory used throughout the entire GTOINT-calculation: 24.0 MB


           ************************************************************
           *        Program running with 8 parallel MPI-processes     *
           *              working on a common directory               *
           ************************************************************
-------------------------------------------------------------------------------
                                 ORCA SCF
-------------------------------------------------------------------------------

------------
SCF SETTINGS
------------
Hamiltonian:
 Density Functional     Method          .... DFT(GTOs)
 Exchange Functional    Exchange        .... TPSS
 Correlation Functional Correlation     .... TPSS
 LDA part of GGA corr.  LDAOpt          .... PW91-LDA
 Gradients option       PostSCFGGA      .... off
   Density functional embedding theory  .... OFF
   NL short-range parameter             ....  5.000000
 RI-approximation to the Coulomb term is turned on
   Number of AuxJ basis functions       .... 649


General Settings:
 Integral files         IntName         .... Keton_freqopt
 Hartree-Fock type      HFTyp           .... RHF
 Total Charge           Charge          ....    0
 Multiplicity           Mult            ....    1
 Number of Electrons    NEL             ....   80
 Basis Dimension        Dim             ....  401
 Nuclear Repulsion      ENuc            ....    576.5526144000 Eh

Convergence Acceleration:
 DIIS                   CNVDIIS         .... on
   Start iteration      DIISMaxIt       ....    12
   Startup error        DIISStart       ....  0.200000
   # of expansion vecs  DIISMaxEq       ....     5
   Bias factor          DIISBfac        ....   1.050
   Max. coefficient     DIISMaxC        ....  10.000
 Trust-Rad. Augm. Hess. CNVTRAH         .... auto
   Auto Start mean grad. ratio tolernc. ....  1.125000
   Auto Start start iteration           ....    20
   Auto Start num. interpolation iter.  ....    10
   Max. Number of Micro iterations      ....    16
   Max. Number of Macro iterations      .... Maxiter - #DIIS iter
   Number of Davidson start vectors     ....     2
   Converg. threshold I  (grad. norm)   ....   1.000e-05
   Converg. threshold II (energy diff.) ....   1.000e-08
   Grad. Scal. Fac. for Micro threshold ....   0.100
   Minimum threshold for Micro iter.    ....   0.010
   NR start threshold (gradient norm)   ....   0.001
   Initial trust radius                 ....   0.400
   Minimum AH scaling param. (alpha)    ....   1.000
   Maximum AH scaling param. (alpha)    .... 1000.000
   Orbital update algorithm             .... Taylor
   White noise on init. David. guess    .... on
   Maximum white noise                  ....   0.010
   Quad. conv. algorithm                .... NR
 SOSCF                  CNVSOSCF        .... on
   Start iteration      SOSCFMaxIt      ....   150
   Startup grad/error   SOSCFStart      ....  0.003300
 Level Shifting         CNVShift        .... on
   Level shift para.    LevelShift      ....    0.2500
   Turn off err/grad.   ShiftErr        ....    0.0010
 Zerner damping         CNVZerner       .... off
 Static damping         CNVDamp         .... on
   Fraction old density DampFac         ....    0.7000
   Max. Damping (<1)    DampMax         ....    0.9800
   Min. Damping (>=0)   DampMin         ....    0.0000
   Turn off err/grad.   DampErr         ....    0.1000
 Fernandez-Rico         CNVRico         .... off

SCF Procedure:
 Maximum # iterations   MaxIter         ....   125
 SCF integral mode      SCFMode         .... Direct
   Integral package                     .... SHARK and LIBINT hybrid scheme
 Reset frequency        DirectResetFreq ....    20
 Integral Threshold     Thresh          ....  2.500e-11 Eh
 Primitive CutOff       TCut            ....  2.500e-12 Eh

Convergence Tolerance:
 Convergence Check Mode ConvCheckMode   .... Total+1el-Energy
 Convergence forced     ConvForced      .... 0
 Energy Change          TolE            ....  1.000e-08 Eh
 1-El. energy change                    ....  1.000e-05 Eh
 Orbital Gradient       TolG            ....  1.000e-05
 Orbital Rotation angle TolX            ....  1.000e-05
 DIIS Error             TolErr          ....  5.000e-07


Diagonalization of the overlap matrix:
Smallest eigenvalue                        ... 7.760e-06
Time for diagonalization                   ...    0.078 sec
Threshold for overlap eigenvalues          ... 1.000e-08
Number of eigenvalues below threshold      ... 0
Time for construction of square roots      ...    0.049 sec
Total time needed                          ...    0.129 sec

Time for model grid setup =    0.258 sec

------------------------------
INITIAL GUESS: MODEL POTENTIAL
------------------------------
Loading Hartree-Fock densities                     ... done
Calculating cut-offs                               ... done
Initializing the effective Hamiltonian             ... done
Setting up the integral package (SHARK)            ... done
Starting the Coulomb interaction                   ... done (   0.2 sec)
Reading the grid                                   ... done
Mapping shells                                     ... done
Starting the XC term evaluation                    ... done (   0.3 sec)
  promolecular density results
     # of electrons  =     79.992351145
     EX              =    -65.301063734
     EC              =     -2.663095419
     EX+EC           =    -67.964159152
Transforming the Hamiltonian                       ... done (   0.0 sec)
Diagonalizing the Hamiltonian                      ... done (   0.1 sec)
Back transforming the eigenvectors                 ... done (   0.0 sec)
Now organizing SCF variables                       ... done
                      ------------------
                      INITIAL GUESS DONE (   0.9 sec)
                      ------------------
-------------------
DFT GRID GENERATION
-------------------

General Integration Accuracy     IntAcc      ... 4.388
Radial Grid Type                 RadialGrid  ... OptM3 with GC (2021)
Angular Grid (max. ang.)         AngularGrid ... 4 (Lebedev-302)
Angular grid pruning method      GridPruning ... 4 (adaptive)
Weight generation scheme         WeightScheme... Becke
Basis function cutoff            BFCut       ... 1.0000e-11
Integration weight cutoff        WCut        ... 1.0000e-14
Angular grids for H and He will be reduced by one unit
Partially contracted basis set               ... off
Rotationally invariant grid construction     ... off

Total number of grid points                  ...    98192
Total number of batches                      ...     1543
Average number of points per batch           ...       63
Average number of grid points per atom       ...     4676
Time for grid setup =    1.052 sec


--------------------
CPCM SOLVATION MODEL
--------------------
CPCM parameters:
  Epsilon                                         ...       7.2500
  Refrac                                          ...       1.4070
  Rsolv                                           ...       1.3000
  Surface type                                    ... GAUSSIAN VDW
  Epsilon function type                           ...         CPCM
Radii:
 Radius for C  used is    3.8550 Bohr (=   2.0400 Ang.)
 Radius for H  used is    2.4944 Bohr (=   1.3200 Ang.)
 Radius for O  used is    3.4469 Bohr (=   1.8240 Ang.)
Calculating surface                               ...        done! (  0.0s)
GEPOL surface points                              ...         1151
GEPOL Volume                                      ...    1274.3664
GEPOL Surface-area                                ...     699.7029
Calculating surface distance matrix               ...        done! (  0.0s)
Performing Cholesky decomposition & store         ...        done! (  0.2s)
Overall time for CPCM initialization              ...                 0.2s
--------------
SCF ITERATIONS
--------------
ITER       Energy         Delta-E        Max-DP      RMS-DP      [F,P]     Damp
               ***  Starting incremental Fock matrix formation  ***
  0   -499.4417192921   0.000000000000 0.31232381  0.00206603  0.2510787 0.7000
  1   -499.5637647882  -0.122045496110 0.25097144  0.00183590  0.0908246 0.7000
                               ***Turning on DIIS***
  2   -499.6084270944  -0.044662306179 0.21732404  0.00276113  0.0349696 0.0000
  3   -499.6776345618  -0.069207467364 0.23569160  0.00152748  0.0534960 0.0000
  4   -499.6948910236  -0.017256461836 0.04185670  0.00046476  0.0257717 0.0000
  5   -499.6963019214  -0.001410897733 0.02263797  0.00023048  0.0092797 0.0000
                      *** Initiating the SOSCF procedure ***
                           *** Shutting down DIIS ***
                      *** Re-Reading the Fockian *** 
                      *** Removing any level shift *** 
ITER      Energy       Delta-E        Grad      Rot      Max-DP    RMS-DP
  6   -499.69643943  -0.0001375128  0.000289  0.000289  0.005210  0.000063
               *** Restarting incremental Fock matrix formation ***
  7   -499.69644673  -0.0000072930  0.000126  0.000606  0.003609  0.000044
  8   -499.69644546   0.0000012720  0.000325  0.000775  0.000665  0.000007
  9   -499.69644807  -0.0000026124  0.000050  0.000314  0.000795  0.000007
 10   -499.69644797   0.0000000927  0.000060  0.000100  0.000245  0.000003
 11   -499.69644816  -0.0000001874  0.000014  0.000057  0.000201  0.000002
 12   -499.69644815   0.0000000092  0.000026  0.000036  0.000296  0.000002
 13   -499.69644816  -0.0000000109  0.000005  0.000020  0.000244  0.000002
 14   -499.69644816  -0.0000000000  0.000006  0.000009  0.000085  0.000001
                  ***Gradient check signals convergence***
              ***Rediagonalizing the Fockian in SOSCF/NRSCF***

               *****************************************************
               *                     SUCCESS                       *
               *           SCF CONVERGED AFTER  15 CYCLES          *
               *****************************************************


----------------
TOTAL SCF ENERGY
----------------

Total Energy       :         -499.69644816 Eh          -13597.43163 eV

Components:
Nuclear Repulsion  :          576.55261440 Eh           15688.79424 eV
Electronic Energy  :        -1076.24906256 Eh          -29286.22588 eV
One Electron Energy:        -1820.99910872 Eh          -49551.90492 eV
Two Electron Energy:          744.75004616 Eh           20265.67904 eV
CPCM Dielectric    :           -0.01174601 Eh              -0.31963 eV

Virial components:
Potential Energy   :         -997.52003089 Eh          -27143.90001 eV
Kinetic Energy     :          497.82358273 Eh           13546.46838 eV
Virial Ratio       :            2.00376211


DFT components:
N(Alpha)           :       40.000055058817 electrons
N(Beta)            :       40.000055058817 electrons
N(Total)           :       80.000110117635 electrons
E(X)               :      -67.343123007842 Eh       
E(C)               :       -2.669586180682 Eh       
E(XC)              :      -70.012709188523 Eh       
DFET-embed. en.    :        0.000000000000 Eh       
CPCM Solvation Model Properties:
Surface-charge          :           -0.02472690
Charge-correction       :           -0.00012840 Eh              -0.00349 eV
Free-energy (cav+disp)  :  This term is not implemented in the current solvation scheme

---------------
SCF CONVERGENCE
---------------

  Last Energy change         ...    4.5310e-10  Tolerance :   1.0000e-08
  Last MAX-Density change    ...    2.4087e-04  Tolerance :   1.0000e-07
  Last RMS-Density change    ...    3.0783e-06  Tolerance :   5.0000e-09
  Last Orbital Gradient      ...    7.6648e-07  Tolerance :   1.0000e-05
  Last Orbital Rotation      ...    3.9218e-06  Tolerance :   1.0000e-05

             **** THE GBW FILE WAS UPDATED (Keton_freqopt.gbw) ****
             **** DENSITY Keton_freqopt.scfp WAS UPDATED ****
             **** ENERGY FILE WAS UPDATED (Keton_freqopt.en.tmp) ****
             **** THE GBW FILE WAS UPDATED (Keton_freqopt.gbw) ****
             **** DENSITY Keton_freqopt.scfp WAS UPDATED ****
----------------
ORBITAL ENERGIES
----------------

  NO   OCC          E(Eh)            E(eV) 
   0   2.0000     -18.918802      -514.8068 
   1   2.0000     -18.873588      -513.5764 
   2   2.0000     -10.070317      -274.0273 
   3   2.0000     -10.050964      -273.5006 
   4   2.0000     -10.034557      -273.0542 
   5   2.0000      -9.998370      -272.0695 
   6   2.0000      -9.994573      -271.9662 
   7   2.0000      -9.993728      -271.9432 
   8   2.0000      -9.990315      -271.8503 
   9   2.0000      -9.989959      -271.8406 
  10   2.0000      -9.981932      -271.6222 
  11   2.0000      -1.007271       -27.4092 
  12   2.0000      -0.979653       -26.6577 
  13   2.0000      -0.806613       -21.9491 
  14   2.0000      -0.721674       -19.6377 
  15   2.0000      -0.709767       -19.3137 
  16   2.0000      -0.678554       -18.4644 
  17   2.0000      -0.646536       -17.5931 
  18   2.0000      -0.582732       -15.8569 
  19   2.0000      -0.558732       -15.2039 
  20   2.0000      -0.512213       -13.9380 
  21   2.0000      -0.474148       -12.9022 
  22   2.0000      -0.449655       -12.2357 
  23   2.0000      -0.445687       -12.1277 
  24   2.0000      -0.428271       -11.6538 
  25   2.0000      -0.420345       -11.4382 
  26   2.0000      -0.407566       -11.0904 
  27   2.0000      -0.396079       -10.7779 
  28   2.0000      -0.389405       -10.5962 
  29   2.0000      -0.371794       -10.1170 
  30   2.0000      -0.353388        -9.6162 
  31   2.0000      -0.351580        -9.5670 
  32   2.0000      -0.332542        -9.0489 
  33   2.0000      -0.330182        -8.9847 
  34   2.0000      -0.328948        -8.9511 
  35   2.0000      -0.293459        -7.9854 
  36   2.0000      -0.292862        -7.9692 
  37   2.0000      -0.241086        -6.5603 
  38   2.0000      -0.217215        -5.9107 
  39   2.0000      -0.206802        -5.6274 
  40   0.0000      -0.087521        -2.3816 
  41   0.0000      -0.033691        -0.9168 
  42   0.0000       0.010120         0.2754 
  43   0.0000       0.036995         1.0067 
  44   0.0000       0.046557         1.2669 
  45   0.0000       0.055351         1.5062 
  46   0.0000       0.074778         2.0348 
  47   0.0000       0.088659         2.4125 
  48   0.0000       0.094371         2.5680 
  49   0.0000       0.102522         2.7898 
  50   0.0000       0.110216         2.9991 
  51   0.0000       0.110473         3.0061 
  52   0.0000       0.113104         3.0777 
  53   0.0000       0.123032         3.3479 
  54   0.0000       0.124346         3.3836 
  55   0.0000       0.137611         3.7446 
  56   0.0000       0.142897         3.8884 
  57   0.0000       0.169933         4.6241 
  58   0.0000       0.177915         4.8413 
  59   0.0000       0.192798         5.2463 
  60   0.0000       0.198927         5.4131 
  61   0.0000       0.208691         5.6788 
  62   0.0000       0.208974         5.6865 
  63   0.0000       0.214283         5.8309 
  64   0.0000       0.218674         5.9504 
  65   0.0000       0.222355         6.0506 
  66   0.0000       0.230976         6.2852 
  67   0.0000       0.234322         6.3762 
  68   0.0000       0.260677         7.0934 
  69   0.0000       0.267261         7.2725 
  70   0.0000       0.271309         7.3827 
  71   0.0000       0.276400         7.5212 
  72   0.0000       0.302082         8.2201 
  73   0.0000       0.309527         8.4227 
  74   0.0000       0.318287         8.6610 
  75   0.0000       0.326161         8.8753 
  76   0.0000       0.328261         8.9324 
  77   0.0000       0.341021         9.2797 
  78   0.0000       0.348347         9.4790 
  79   0.0000       0.357887         9.7386 
  80   0.0000       0.361788         9.8448 
  81   0.0000       0.372172        10.1273 
  82   0.0000       0.387281        10.5385 
  83   0.0000       0.392904        10.6915 
  84   0.0000       0.396115        10.7788 
  85   0.0000       0.399103        10.8601 
  86   0.0000       0.409537        11.1441 
  87   0.0000       0.416067        11.3218 
  88   0.0000       0.417897        11.3716 
  89   0.0000       0.430219        11.7068 
  90   0.0000       0.441794        12.0218 
  91   0.0000       0.446250        12.1431 
  92   0.0000       0.457669        12.4538 
  93   0.0000       0.459693        12.5089 
  94   0.0000       0.469625        12.7792 
  95   0.0000       0.473114        12.8741 
  96   0.0000       0.483173        13.1478 
  97   0.0000       0.486228        13.2309 
  98   0.0000       0.496053        13.4983 
  99   0.0000       0.525062        14.2877 
 100   0.0000       0.533454        14.5160 
 101   0.0000       0.542521        14.7628 
 102   0.0000       0.551311        15.0019 
 103   0.0000       0.553671        15.0662 
 104   0.0000       0.587115        15.9762 
 105   0.0000       0.598399        16.2833 
 106   0.0000       0.605185        16.4679 
 107   0.0000       0.625679        17.0256 
 108   0.0000       0.630995        17.1703 
 109   0.0000       0.639307        17.3964 
 110   0.0000       0.645482        17.5644 
 111   0.0000       0.662309        18.0224 
 112   0.0000       0.671158        18.2631 
 113   0.0000       0.675970        18.3941 
 114   0.0000       0.696894        18.9634 
 115   0.0000       0.701200        19.0806 
 116   0.0000       0.721253        19.6263 
 117   0.0000       0.726245        19.7621 
 118   0.0000       0.733612        19.9626 
 119   0.0000       0.739981        20.1359 
 120   0.0000       0.761264        20.7150 
 121   0.0000       0.773796        21.0561 
 122   0.0000       0.796499        21.6738 
 123   0.0000       0.811602        22.0848 
 124   0.0000       0.818455        22.2713 
 125   0.0000       0.823900        22.4195 
 126   0.0000       0.832603        22.6563 
 127   0.0000       0.845264        23.0008 
 128   0.0000       0.870301        23.6821 
 129   0.0000       0.874736        23.8028 
 130   0.0000       0.906329        24.6625 
 131   0.0000       0.914575        24.8868 
 132   0.0000       0.931458        25.3462 
 133   0.0000       0.945558        25.7299 
 134   0.0000       0.953344        25.9418 
 135   0.0000       0.959827        26.1182 
 136   0.0000       0.974134        26.5075 
 137   0.0000       1.009294        27.4643 
 138   0.0000       1.015745        27.6398 
 139   0.0000       1.029052        28.0019 
 140   0.0000       1.037349        28.2277 
 141   0.0000       1.073518        29.2119 
 142   0.0000       1.074740        29.2452 
 143   0.0000       1.107091        30.1255 
 144   0.0000       1.113460        30.2988 
 145   0.0000       1.116921        30.3930 
 146   0.0000       1.141176        31.0530 
 147   0.0000       1.194285        32.4981 
 148   0.0000       1.204157        32.7668 
 149   0.0000       1.207178        32.8490 
 150   0.0000       1.224594        33.3229 
 151   0.0000       1.231692        33.5161 
 152   0.0000       1.243567        33.8392 
 153   0.0000       1.247646        33.9502 
 154   0.0000       1.281827        34.8803 
 155   0.0000       1.294238        35.2180 
 156   0.0000       1.322066        35.9753 
 157   0.0000       1.344654        36.5899 
 158   0.0000       1.370433        37.2914 
 159   0.0000       1.393739        37.9256 
 160   0.0000       1.407100        38.2891 
 161   0.0000       1.411206        38.4009 
 162   0.0000       1.428876        38.8817 
 163   0.0000       1.436884        39.0996 
 164   0.0000       1.450911        39.4813 
 165   0.0000       1.467545        39.9339 
 166   0.0000       1.470042        40.0019 
 167   0.0000       1.495221        40.6870 
 168   0.0000       1.495729        40.7009 
 169   0.0000       1.511286        41.1242 
 170   0.0000       1.519368        41.3441 
 171   0.0000       1.536640        41.8141 
 172   0.0000       1.547558        42.1112 
 173   0.0000       1.561193        42.4822 
 174   0.0000       1.573627        42.8206 
 175   0.0000       1.582797        43.0701 
 176   0.0000       1.595322        43.4109 
 177   0.0000       1.610446        43.8225 
 178   0.0000       1.613198        43.8974 
 179   0.0000       1.618601        44.0444 
 180   0.0000       1.637886        44.5691 
 181   0.0000       1.661418        45.2095 
 182   0.0000       1.663967        45.2788 
 183   0.0000       1.683773        45.8178 
 184   0.0000       1.709125        46.5077 
 185   0.0000       1.709704        46.5234 
 186   0.0000       1.771224        48.1974 
 187   0.0000       1.776807        48.3494 
 188   0.0000       1.781542        48.4782 
 189   0.0000       1.788722        48.6736 
 190   0.0000       1.834344        49.9150 
 191   0.0000       1.860560        50.6284 
 192   0.0000       1.877845        51.0988 
 193   0.0000       1.880825        51.1799 
 194   0.0000       1.899134        51.6781 
 195   0.0000       1.909733        51.9665 
 196   0.0000       1.925339        52.3911 
 197   0.0000       1.950431        53.0739 
 198   0.0000       1.960518        53.3484 
 199   0.0000       1.968685        53.5706 
 200   0.0000       1.982283        53.9407 
 201   0.0000       2.016169        54.8628 
 202   0.0000       2.031298        55.2744 
 203   0.0000       2.046135        55.6782 
 204   0.0000       2.072809        56.4040 
 205   0.0000       2.077909        56.5428 
 206   0.0000       2.098927        57.1147 
 207   0.0000       2.118838        57.6565 
 208   0.0000       2.125830        57.8468 
 209   0.0000       2.167347        58.9765 
 210   0.0000       2.184265        59.4369 
 211   0.0000       2.237935        60.8973 
 212   0.0000       2.251578        61.2686 
 213   0.0000       2.256528        61.4033 
 214   0.0000       2.265609        61.6504 
 215   0.0000       2.267378        61.6985 
 216   0.0000       2.294594        62.4391 
 217   0.0000       2.306075        62.7515 
 218   0.0000       2.314657        62.9850 
 219   0.0000       2.330401        63.4134 
 220   0.0000       2.350382        63.9572 
 221   0.0000       2.362600        64.2896 
 222   0.0000       2.382085        64.8198 
 223   0.0000       2.415383        65.7259 
 224   0.0000       2.418617        65.8139 
 225   0.0000       2.426255        66.0218 
 226   0.0000       2.449939        66.6662 
 227   0.0000       2.503162        68.1145 
 228   0.0000       2.516957        68.4899 
 229   0.0000       2.522782        68.6484 
 230   0.0000       2.526453        68.7483 
 231   0.0000       2.536425        69.0196 
 232   0.0000       2.544528        69.2401 
 233   0.0000       2.558605        69.6232 
 234   0.0000       2.570545        69.9481 
 235   0.0000       2.581857        70.2559 
 236   0.0000       2.609450        71.0067 
 237   0.0000       2.617144        71.2161 
 238   0.0000       2.642619        71.9093 
 239   0.0000       2.655965        72.2725 
 240   0.0000       2.659688        72.3738 
 241   0.0000       2.674612        72.7799 
 242   0.0000       2.688620        73.1611 
 243   0.0000       2.694996        73.3346 
 244   0.0000       2.712209        73.8030 
 245   0.0000       2.720404        74.0260 
 246   0.0000       2.725596        74.1672 
 247   0.0000       2.756077        74.9967 
 248   0.0000       2.778695        75.6121 
 249   0.0000       2.790894        75.9441 
 250   0.0000       2.797813        76.1324 
 251   0.0000       2.811959        76.5173 
 252   0.0000       2.821367        76.7733 
 253   0.0000       2.833780        77.1111 
 254   0.0000       2.841734        77.3275 
 255   0.0000       2.845730        77.4363 
 256   0.0000       2.856265        77.7229 
 257   0.0000       2.883650        78.4681 
 258   0.0000       2.907010        79.1038 
 259   0.0000       2.918202        79.4083 
 260   0.0000       2.930081        79.7316 
 261   0.0000       2.969065        80.7924 
 262   0.0000       2.976742        81.0013 
 263   0.0000       2.977614        81.0250 
 264   0.0000       2.992115        81.4196 
 265   0.0000       3.003490        81.7291 
 266   0.0000       3.013881        82.0119 
 267   0.0000       3.019840        82.1740 
 268   0.0000       3.024874        82.3110 
 269   0.0000       3.082645        83.8830 
 270   0.0000       3.095020        84.2198 
 271   0.0000       3.100568        84.3707 
 272   0.0000       3.118040        84.8462 
 273   0.0000       3.126630        85.0799 
 274   0.0000       3.136187        85.3400 
 275   0.0000       3.137697        85.3811 
 276   0.0000       3.154618        85.8415 
 277   0.0000       3.176878        86.4472 
 278   0.0000       3.190958        86.8304 
 279   0.0000       3.192501        86.8724 
 280   0.0000       3.212831        87.4256 
 281   0.0000       3.216209        87.5175 
 282   0.0000       3.235933        88.0542 
 283   0.0000       3.262962        88.7897 
 284   0.0000       3.265233        88.8515 
 285   0.0000       3.266201        88.8778 
 286   0.0000       3.275390        89.1279 
 287   0.0000       3.283978        89.3616 
 288   0.0000       3.308617        90.0320 
 289   0.0000       3.324806        90.4726 
 290   0.0000       3.329530        90.6011 
 291   0.0000       3.335002        90.7500 
 292   0.0000       3.339098        90.8615 
 293   0.0000       3.380226        91.9806 
 294   0.0000       3.390327        92.2555 
 295   0.0000       3.402341        92.5824 
 296   0.0000       3.410096        92.7934 
 297   0.0000       3.420000        93.0629 
 298   0.0000       3.451743        93.9267 
 299   0.0000       3.459631        94.1413 
 300   0.0000       3.469549        94.4112 
 301   0.0000       3.475095        94.5621 
 302   0.0000       3.501229        95.2733 
 303   0.0000       3.502852        95.3174 
 304   0.0000       3.515934        95.6734 
 305   0.0000       3.526873        95.9711 
 306   0.0000       3.534892        96.1893 
 307   0.0000       3.546672        96.5099 
 308   0.0000       3.581116        97.4471 
 309   0.0000       3.587490        97.6206 
 310   0.0000       3.608365        98.1886 
 311   0.0000       3.620792        98.5267 
 312   0.0000       3.671605        99.9095 
 313   0.0000       3.672077        99.9223 
 314   0.0000       3.735166       101.6390 
 315   0.0000       3.743184       101.8572 
 316   0.0000       3.773498       102.6821 
 317   0.0000       3.812122       103.7331 
 318   0.0000       3.828882       104.1892 
 319   0.0000       3.834033       104.3293 
 320   0.0000       3.880030       105.5810 
 321   0.0000       3.910297       106.4046 
 322   0.0000       3.951912       107.5370 
 323   0.0000       3.952452       107.5517 
 324   0.0000       3.982164       108.3602 
 325   0.0000       4.036234       109.8315 
 326   0.0000       4.042293       109.9964 
 327   0.0000       4.089351       111.2769 
 328   0.0000       4.098514       111.5262 
 329   0.0000       4.116243       112.0087 
 330   0.0000       4.186762       113.9276 
 331   0.0000       4.190097       114.0183 
 332   0.0000       4.194159       114.1289 
 333   0.0000       4.210615       114.5767 
 334   0.0000       4.224060       114.9425 
 335   0.0000       4.240260       115.3833 
 336   0.0000       4.255779       115.8056 
 337   0.0000       4.277564       116.3984 
 338   0.0000       4.290946       116.7626 
 339   0.0000       4.313881       117.3867 
 340   0.0000       4.333603       117.9233 
 341   0.0000       4.410812       120.0243 
 342   0.0000       4.415296       120.1463 
 343   0.0000       4.425712       120.4298 
 344   0.0000       4.472543       121.7041 
 345   0.0000       4.492109       122.2365 
 346   0.0000       4.531543       123.3095 
 347   0.0000       4.542230       123.6004 
 348   0.0000       4.606324       125.3444 
 349   0.0000       4.648009       126.4788 
 350   0.0000       4.651038       126.5612 
 351   0.0000       4.675311       127.2217 
 352   0.0000       4.713510       128.2611 
 353   0.0000       4.744089       129.0932 
 354   0.0000       4.784709       130.1986 
 355   0.0000       4.861124       132.2779 
 356   0.0000       4.938863       134.3933 
 357   0.0000       4.966600       135.1481 
 358   0.0000       5.039855       137.1414 
 359   0.0000       5.090501       138.5196 
 360   0.0000       5.195115       141.3663 
 361   0.0000       5.207512       141.7036 
 362   0.0000       5.235710       142.4709 
 363   0.0000       5.278462       143.6342 
 364   0.0000       5.339449       145.2938 
 365   0.0000       5.345460       145.4574 
 366   0.0000       5.379034       146.3710 
 367   0.0000       5.454744       148.4311 
 368   0.0000       5.521501       150.2477 
 369   0.0000       5.597987       152.3290 
 370   0.0000       5.677857       154.5023 
 371   0.0000       5.753285       156.5548 
 372   0.0000       5.769163       156.9869 
 373   0.0000       5.913224       160.9070 
 374   0.0000       6.010130       163.5439 
 375   0.0000       6.110366       166.2715 
 376   0.0000       6.338860       172.4892 
 377   0.0000       6.347430       172.7224 
 378   0.0000       6.372564       173.4063 
 379   0.0000       6.529714       177.6826 
 380   0.0000       6.574276       178.8952 
 381   0.0000       6.596943       179.5120 
 382   0.0000       6.645334       180.8287 
 383   0.0000       6.739998       183.4047 
 384   0.0000       6.787482       184.6968 
 385   0.0000       6.830336       185.8629 
 386   0.0000       7.052335       191.9038 
 387   0.0000       7.086996       192.8470 
 388   0.0000       7.141650       194.3342 
 389   0.0000       7.387899       201.0349 
 390   0.0000      22.124874       602.0484 
 391   0.0000      22.348721       608.1396 
 392   0.0000      22.375877       608.8786 
 393   0.0000      22.610849       615.2725 
 394   0.0000      22.695869       617.5860 
 395   0.0000      22.773072       619.6868 
 396   0.0000      22.948039       624.4479 
 397   0.0000      23.163561       630.3125 
 398   0.0000      23.362434       635.7242 
 399   0.0000      43.844179      1193.0608 
 400   0.0000      44.163201      1201.7418 

                    ********************************
                    * MULLIKEN POPULATION ANALYSIS *
                    ********************************

-----------------------
MULLIKEN ATOMIC CHARGES
-----------------------
   0 C :    0.337133
   1 C :   -0.238918
   2 C :   -0.154174
   3 C :   -0.212338
   4 C :    0.137539
   5 C :   -0.293108
   6 H :    0.105949
   7 H :    0.143736
   8 H :    0.132905
   9 H :    0.139105
  10 C :    0.199152
  11 C :   -0.348879
  12 H :    0.149448
  13 H :    0.132244
  14 H :    0.149554
  15 O :   -0.336859
  16 O :   -0.244765
  17 C :   -0.226881
  18 H :    0.153196
  19 H :    0.137979
  20 H :    0.137980
Sum of atomic charges:    0.0000000

--------------------------------
MULLIKEN REDUCED ORBITAL CHARGES
--------------------------------
  0 C s       :     2.954403  s :     2.954403
      pz      :     0.937744  p :     2.515115
      px      :     0.736430
      py      :     0.840941
      dz2     :     0.006192  d :     0.177540
      dxz     :     0.040137
      dyz     :     0.030856
      dx2y2   :     0.051774
      dxy     :     0.048581
      f0      :     0.002334  f :     0.015810
      f+1     :     0.001069
      f-1     :     0.000834
      f+2     :     0.001232
      f-2     :     0.002488
      f+3     :     0.005548
      f-3     :     0.002305
  1 C s       :     3.260619  s :     3.260619
      pz      :     1.005877  p :     2.883699
      px      :     0.951645
      py      :     0.926177
      dz2     :     0.005727  d :     0.086876
      dxz     :     0.009740
      dyz     :     0.016285
      dx2y2   :     0.024996
      dxy     :     0.030128
      f0      :     0.001424  f :     0.007724
      f+1     :     0.000695
      f-1     :     0.000623
      f+2     :     0.000968
      f-2     :     0.000441
      f+3     :     0.002236
      f-3     :     0.001338
  2 C s       :     3.189307  s :     3.189307
      pz      :     0.958679  p :     2.857882
      px      :     0.941462
      py      :     0.957741
      dz2     :     0.003815  d :     0.098934
      dxz     :     0.024900
      dyz     :     0.005716
      dx2y2   :     0.046904
      dxy     :     0.017599
      f0      :     0.001465  f :     0.008052
      f+1     :     0.000489
      f-1     :     0.000803
      f+2     :     0.000285
      f-2     :     0.001299
      f+3     :     0.002452
      f-3     :     0.001259
  3 C s       :     3.239748  s :     3.239748
      pz      :     0.981035  p :     2.864624
      px      :     0.971614
      py      :     0.911975
      dz2     :     0.005013  d :     0.100115
      dxz     :     0.009655
      dyz     :     0.018384
      dx2y2   :     0.027811
      dxy     :     0.039253
      f0      :     0.001373  f :     0.007850
      f+1     :     0.000691
      f-1     :     0.000588
      f+2     :     0.000916
      f-2     :     0.000497
      f+3     :     0.002472
      f-3     :     0.001313
  4 C s       :     3.112152  s :     3.112152
      pz      :     0.962695  p :     2.612783
      px      :     0.837838
      py      :     0.812250
      dz2     :     0.005835  d :     0.127360
      dxz     :     0.017417
      dyz     :     0.023050
      dx2y2   :     0.035866
      dxy     :     0.045192
      f0      :     0.001745  f :     0.010167
      f+1     :     0.000702
      f-1     :     0.000657
      f+2     :     0.001079
      f-2     :     0.000729
      f+3     :     0.003676
      f-3     :     0.001579
  5 C s       :     3.411714  s :     3.411714
      pz      :     0.970932  p :     2.784537
      px      :     0.911026
      py      :     0.902580
      dz2     :     0.004542  d :     0.088796
      dxz     :     0.022262
      dyz     :     0.005496
      dx2y2   :     0.036394
      dxy     :     0.020103
      f0      :     0.001407  f :     0.008060
      f+1     :     0.000560
      f-1     :     0.000757
      f+2     :     0.000390
      f-2     :     0.001108
      f+3     :     0.002468
      f-3     :     0.001370
  6 H s       :     0.873102  s :     0.873102
      pz      :     0.004613  p :     0.020949
      px      :     0.003886
      py      :     0.012451
  7 H s       :     0.835586  s :     0.835586
      pz      :     0.005041  p :     0.020678
      px      :     0.009658
      py      :     0.005979
  8 H s       :     0.847049  s :     0.847049
      pz      :     0.004681  p :     0.020046
      px      :     0.003693
      py      :     0.011672
  9 H s       :     0.840291  s :     0.840291
      pz      :     0.004892  p :     0.020604
      px      :     0.010005
      py      :     0.005708
 10 C s       :     3.152030  s :     3.152030
      pz      :     0.723578  p :     2.419136
      px      :     0.914143
      py      :     0.781414
      dz2     :     0.007268  d :     0.211815
      dxz     :     0.019969
      dyz     :     0.045325
      dx2y2   :     0.045186
      dxy     :     0.094066
      f0      :     0.001967  f :     0.017867
      f+1     :     0.000580
      f-1     :     0.001225
      f+2     :     0.002394
      f-2     :     0.001033
      f+3     :     0.007524
      f-3     :     0.003145
 11 C s       :     3.199348  s :     3.199348
      pz      :     1.058229  p :     3.092113
      px      :     0.971746
      py      :     1.062138
      dz2     :     0.006983  d :     0.053004
      dxz     :     0.006219
      dyz     :     0.013424
      dx2y2   :     0.011599
      dxy     :     0.014779
      f0      :     0.000243  f :     0.004414
      f+1     :     0.000242
      f-1     :     0.001429
      f+2     :     0.000303
      f-2     :     0.000309
      f+3     :     0.001001
      f-3     :     0.000887
 12 H s       :     0.830570  s :     0.830570
      pz      :     0.008428  p :     0.019981
      px      :     0.004703
      py      :     0.006851
 13 H s       :     0.847852  s :     0.847852
      pz      :     0.004484  p :     0.019904
      px      :     0.008450
      py      :     0.006970
 14 H s       :     0.830463  s :     0.830463
      pz      :     0.008497  p :     0.019982
      px      :     0.004719
      py      :     0.006767
 15 O s       :     3.807310  s :     3.807310
      pz      :     1.346111  p :     4.498565
      px      :     1.804057
      py      :     1.348397
      dz2     :     0.002287  d :     0.029136
      dxz     :     0.000132
      dyz     :     0.010329
      dx2y2   :     0.007597
      dxy     :     0.008791
      f0      :     0.000175  f :     0.001848
      f+1     :     0.000023
      f-1     :     0.000132
      f+2     :     0.000481
      f-2     :     0.000011
      f+3     :     0.000584
      f-3     :     0.000442
 16 O s       :     3.745866  s :     3.745866
      pz      :     1.735247  p :     4.455420
      px      :     1.161757
      py      :     1.558416
      dz2     :     0.004425  d :     0.041348
      dxz     :     0.007710
      dyz     :     0.003941
      dx2y2   :     0.009039
      dxy     :     0.016232
      f0      :     0.000283  f :     0.002130
      f+1     :     0.000401
      f-1     :     0.000167
      f+2     :     0.000080
      f-2     :     0.000258
      f+3     :     0.000449
      f-3     :     0.000492
 17 C s       :     3.236494  s :     3.236494
      pz      :     1.085102  p :     2.876707
      px      :     0.768486
      py      :     1.023119
      dz2     :     0.008799  d :     0.104456
      dxz     :     0.025359
      dyz     :     0.024732
      dx2y2   :     0.017953
      dxy     :     0.027613
      f0      :     0.001112  f :     0.009224
      f+1     :     0.000767
      f-1     :     0.001486
      f+2     :     0.001098
      f-2     :     0.001020
      f+3     :     0.002286
      f-3     :     0.001456
 18 H s       :     0.827710  s :     0.827710
      pz      :     0.004578  p :     0.019094
      px      :     0.007176
      py      :     0.007340
 19 H s       :     0.843580  s :     0.843580
      pz      :     0.008689  p :     0.018441
      px      :     0.003339
      py      :     0.006414
 20 H s       :     0.843577  s :     0.843577
      pz      :     0.008716  p :     0.018442
      px      :     0.003337
      py      :     0.006389


                     *******************************
                     * LOEWDIN POPULATION ANALYSIS *
                     *******************************

----------------------
LOEWDIN ATOMIC CHARGES
----------------------
   0 C :   -0.256106
   1 C :   -0.119681
   2 C :   -0.135483
   3 C :   -0.112701
   4 C :   -0.134561
   5 C :   -0.060691
   6 H :    0.155037
   7 H :    0.154789
   8 H :    0.150931
   9 H :    0.153085
  10 C :   -0.322139
  11 C :   -0.253108
  12 H :    0.140112
  13 H :    0.128038
  14 H :    0.140485
  15 O :    0.107275
  16 O :    0.250001
  17 C :   -0.327069
  18 H :    0.118225
  19 H :    0.111775
  20 H :    0.111788

-------------------------------
LOEWDIN REDUCED ORBITAL CHARGES
-------------------------------
  0 C s       :     2.711778  s :     2.711778
      pz      :     0.861788  p :     2.767278
      px      :     0.883877
      py      :     1.021613
      dz2     :     0.046615  d :     0.680842
      dxz     :     0.113492
      dyz     :     0.098035
      dx2y2   :     0.190139
      dxy     :     0.232559
      f0      :     0.006140  f :     0.096208
      f+1     :     0.007551
      f-1     :     0.006215
      f+2     :     0.008445
      f-2     :     0.016257
      f+3     :     0.035040
      f-3     :     0.016560
  1 C s       :     2.760035  s :     2.760035
      pz      :     0.906184  p :     2.941180
      px      :     1.015080
      py      :     1.019916
      dz2     :     0.026689  d :     0.374939
      dxz     :     0.030451
      dyz     :     0.057148
      dx2y2   :     0.120785
      dxy     :     0.139865
      f0      :     0.003181  f :     0.043528
      f+1     :     0.003533
      f-1     :     0.004251
      f+2     :     0.006639
      f-2     :     0.002758
      f+3     :     0.014716
      f-3     :     0.008451
  2 C s       :     2.762074  s :     2.762074
      pz      :     0.877895  p :     2.928524
      px      :     1.063647
      py      :     0.986982
      dz2     :     0.025649  d :     0.400308
      dxz     :     0.086456
      dyz     :     0.012194
      dx2y2   :     0.172100
      dxy     :     0.103908
      f0      :     0.003079  f :     0.044578
      f+1     :     0.004443
      f-1     :     0.003215
      f+2     :     0.001507
      f-2     :     0.008123
      f+3     :     0.015866
      f-3     :     0.008345
  3 C s       :     2.755035  s :     2.755035
      pz      :     0.890645  p :     2.925588
      px      :     1.010693
      py      :     1.024249
      dz2     :     0.025727  d :     0.388094
      dxz     :     0.028285
      dyz     :     0.062414
      dx2y2   :     0.123240
      dxy     :     0.148428
      f0      :     0.003080  f :     0.043984
      f+1     :     0.003506
      f-1     :     0.004043
      f+2     :     0.006079
      f-2     :     0.003155
      f+3     :     0.015834
      f-3     :     0.008288
  4 C s       :     2.708728  s :     2.708728
      pz      :     0.858028  p :     2.866110
      px      :     0.986230
      py      :     1.021853
      dz2     :     0.036483  d :     0.503455
      dxz     :     0.052876
      dyz     :     0.078190
      dx2y2   :     0.155408
      dxy     :     0.180498
      f0      :     0.003873  f :     0.056268
      f+1     :     0.004144
      f-1     :     0.004407
      f+2     :     0.007180
      f-2     :     0.004873
      f+3     :     0.021809
      f-3     :     0.009981
  5 C s       :     2.753717  s :     2.753717
      pz      :     0.877102  p :     2.893295
      px      :     1.023098
      py      :     0.993096
      dz2     :     0.026710  d :     0.370604
      dxz     :     0.074903
      dyz     :     0.012734
      dx2y2   :     0.150901
      dxy     :     0.105355
      f0      :     0.003214  f :     0.043075
      f+1     :     0.004390
      f-1     :     0.003187
      f+2     :     0.001737
      f-2     :     0.007547
      f+3     :     0.014471
      f-3     :     0.008529
  6 H s       :     0.782850  s :     0.782850
      pz      :     0.013600  p :     0.062113
      px      :     0.011200
      py      :     0.037314
  7 H s       :     0.783663  s :     0.783663
      pz      :     0.014562  p :     0.061547
      px      :     0.028688
      py      :     0.018297
  8 H s       :     0.790135  s :     0.790135
      pz      :     0.013256  p :     0.058934
      px      :     0.010898
      py      :     0.034779
  9 H s       :     0.785878  s :     0.785878
      pz      :     0.014230  p :     0.061037
      px      :     0.029654
      py      :     0.017153
 10 C s       :     2.759012  s :     2.759012
      pz      :     0.692759  p :     2.680421
      px      :     1.006949
      py      :     0.980713
      dz2     :     0.049430  d :     0.772577
      dxz     :     0.062867
      dyz     :     0.130033
      dx2y2   :     0.212580
      dxy     :     0.317667
      f0      :     0.007001  f :     0.110129
      f+1     :     0.003732
      f-1     :     0.009771
      f+2     :     0.016954
      f-2     :     0.005919
      f+3     :     0.048618
      f-3     :     0.018133
 11 C s       :     2.831448  s :     2.831448
      pz      :     1.063386  p :     3.169403
      px      :     1.034424
      py      :     1.071593
      dz2     :     0.036972  d :     0.227694
      dxz     :     0.020249
      dyz     :     0.053833
      dx2y2   :     0.047048
      dxy     :     0.069592
      f0      :     0.001464  f :     0.024564
      f+1     :     0.003309
      f-1     :     0.004296
      f+2     :     0.003258
      f-2     :     0.001592
      f+3     :     0.005714
      f-3     :     0.004931
 12 H s       :     0.797331  s :     0.797331
      pz      :     0.028215  p :     0.062557
      px      :     0.013138
      py      :     0.021203
 13 H s       :     0.810759  s :     0.810759
      pz      :     0.012972  p :     0.061203
      px      :     0.024644
      py      :     0.023587
 14 H s       :     0.796984  s :     0.796984
      pz      :     0.028470  p :     0.062532
      px      :     0.013173
      py      :     0.020889
 15 O s       :     3.396114  s :     3.396114
      pz      :     1.267815  p :     4.421674
      px      :     1.649625
      py      :     1.504234
      dz2     :     0.007304  d :     0.068773
      dxz     :     0.000106
      dyz     :     0.012620
      dx2y2   :     0.023467
      dxy     :     0.025276
      f0      :     0.000398  f :     0.006165
      f+1     :     0.000146
      f-1     :     0.000863
      f+2     :     0.000765
      f-2     :     0.000019
      f+3     :     0.002202
      f-3     :     0.001772
 16 O s       :     3.243149  s :     3.243149
      pz      :     1.605487  p :     4.384766
      px      :     1.245456
      py      :     1.533823
      dz2     :     0.010325  d :     0.115266
      dxz     :     0.022514
      dyz     :     0.007882
      dx2y2   :     0.032992
      dxy     :     0.041552
      f0      :     0.000745  f :     0.006819
      f+1     :     0.000890
      f-1     :     0.000248
      f+2     :     0.000235
      f-2     :     0.001103
      f+3     :     0.002258
      f-3     :     0.001340
 17 C s       :     2.859476  s :     2.859476
      pz      :     1.104295  p :     3.015748
      px      :     0.854046
      py      :     1.057406
      dz2     :     0.048093  d :     0.393954
      dxz     :     0.069632
      dyz     :     0.086294
      dx2y2   :     0.063483
      dxy     :     0.126453
      f0      :     0.006325  f :     0.057892
      f+1     :     0.007084
      f-1     :     0.004773
      f+2     :     0.007460
      f-2     :     0.005733
      f+3     :     0.014465
      f-3     :     0.012051
 18 H s       :     0.821575  s :     0.821575
      pz      :     0.013415  p :     0.060200
      px      :     0.021365
      py      :     0.025420
 19 H s       :     0.827247  s :     0.827247
      pz      :     0.030239  p :     0.060978
      px      :     0.009730
      py      :     0.021008
 20 H s       :     0.827232  s :     0.827232
      pz      :     0.030340  p :     0.060980
      px      :     0.009725
      py      :     0.020915


                      *****************************
                      * MAYER POPULATION ANALYSIS *
                      *****************************

  NA   - Mulliken gross atomic population
  ZA   - Total nuclear charge
  QA   - Mulliken gross atomic charge
  VA   - Mayer's total valence
  BVA  - Mayer's bonded valence
  FA   - Mayer's free valence

  ATOM       NA         ZA         QA         VA         BVA        FA
  0 C      5.6629     6.0000     0.3371     3.7678     3.7678     0.0000
[...]
     27      -0.011337  -0.000002  -0.000065  -0.023141  -0.002081  -0.229573
     28       0.005294   0.000002   0.000011   0.011151   0.000996   0.131916
     29       0.000016  -0.000303  -0.001215   0.000022   0.000002   0.000309
     30       0.000859  -0.000000   0.000018   0.000083   0.000056  -0.000094
     31       0.000406   0.000000  -0.000009   0.002387   0.000075  -0.000150
     32       0.000011  -0.000006  -0.001008   0.000003  -0.000000   0.000000
     33      -0.032956  -0.000000  -0.000172   0.052111   0.000398  -0.000663
     34       0.038811   0.000000   0.000298   0.076200   0.000551  -0.001372
     35       0.000530  -0.000083  -0.090766   0.000064   0.000001  -0.000002
     36       0.043637   0.000061   0.055066   0.029823   0.000205  -0.000441
     37      -0.371487  -0.000462  -0.429410  -0.153056  -0.000950   0.004284
     38       0.521968   0.000641   0.558289   0.229846   0.001447  -0.006240
     39       0.292026   0.000008   0.003872  -0.675155  -0.005210   0.009911
     40       0.279727   0.000008   0.003623  -0.618882  -0.004733   0.009619
     41       0.001696  -0.000010  -0.020135  -0.003536  -0.000027   0.000051
     42       0.046337  -0.000064  -0.057092   0.030403   0.000208  -0.000461
     43      -0.371743   0.000457   0.422316  -0.148460  -0.000920   0.004191
     44      -0.530106   0.000644   0.557316  -0.227095  -0.001428   0.006209
     45      -0.000075  -0.000000  -0.000000  -0.000209  -0.000015   0.000017
     46      -0.000488   0.000000   0.000002  -0.000877  -0.000041   0.000060
     47       0.000004  -0.000013  -0.000191  -0.000002  -0.000001   0.000000
     48       0.000028  -0.000001  -0.000000   0.000067  -0.000364  -0.000190
     49      -0.000019  -0.000000  -0.000000  -0.000023  -0.000273   0.000084
     50       0.000001  -0.000287  -0.000007  -0.000000  -0.000001   0.000000
     51      -0.000016  -0.000026  -0.000000   0.000362  -0.052476   0.001019
     52       0.000106  -0.000225   0.000001  -0.000602   0.075621  -0.001669
     53       0.000001   0.094970  -0.000125  -0.000001   0.000163  -0.000009
     54      -0.000230   0.000055   0.000002  -0.004938   0.659922  -0.012311
     55       0.000191  -0.000111  -0.000003   0.005123  -0.679465   0.013532
     56       0.000002   0.023145  -0.000045   0.000010  -0.001438   0.000028
     57      -0.000053   0.043478  -0.000060   0.000197  -0.021548   0.000242
     58      -0.000840   0.407776  -0.000447   0.000972  -0.107558   0.003897
     59       0.001370  -0.572060   0.000610  -0.001527   0.185138  -0.006531
     60      -0.000053  -0.043182   0.000059   0.000196  -0.021452   0.000251
     61      -0.000831  -0.404988   0.000441   0.000960  -0.106692   0.003913
     62      -0.001378  -0.573704   0.000608   0.001524  -0.185612   0.006614
                 60         61         62    
      0       0.003313  -0.000213   0.000444
      1       0.000994   0.002196  -0.002360
      2       0.000005   0.000006  -0.000005
      3       0.002286  -0.049979   0.051473
      4       0.001941  -0.032364   0.031071
      5       0.000004  -0.000073   0.000071
      6      -0.000323   0.003347  -0.000379
      7       0.002830   0.004173   0.031547
      8       0.000003   0.000011   0.000076
      9       0.003632  -0.053657  -0.049678
     10      -0.001413   0.030875   0.026613
     11      -0.000000   0.000073   0.000062
     12      -0.002025  -0.000403  -0.000307
     13       0.000836  -0.002004  -0.002045
     14       0.000002  -0.000005  -0.000005
     15       0.001522   0.000892   0.000088
     16      -0.085803  -0.004969  -0.000055
     17      -0.000190  -0.000012  -0.000001
     18      -0.020920  -0.002481  -0.000062
     19       0.993769   0.055921  -0.002024
     20       0.002219   0.000128  -0.000003
     21      -0.026963   0.584447  -0.581987
     22      -0.017382   0.365833  -0.361434
     23      -0.000036   0.000817  -0.000808
     24       0.000429  -0.003028   0.003935
     25      -0.032123  -0.045560  -0.335154
     26      -0.000077  -0.000111  -0.000807
     27      -0.042874   0.622654   0.558736
     28       0.023531  -0.350526  -0.312122
     29       0.000058  -0.000814  -0.000723
     30       0.000054  -0.000476  -0.000495
     31      -0.001428  -0.000026   0.000046
     32      -0.000003  -0.000000  -0.000000
     33      -0.000334   0.000541   0.000319
     34      -0.000679   0.001578   0.000996
     35      -0.000001   0.000001   0.000001
     36      -0.000356   0.000312   0.000022
     37       0.002218  -0.006793  -0.004808
     38      -0.003192   0.009656   0.006606
     39       0.006589  -0.008507  -0.005169
     40       0.005366  -0.009451  -0.006029
     41       0.000032  -0.000047  -0.000030
     42      -0.000367   0.000351   0.000052
     43       0.002178  -0.006667  -0.004725
     44       0.003190  -0.009642  -0.006605
     45      -0.000423   0.000108   0.000159
     46       0.000538   0.000227   0.000202
     47      -0.000001   0.000000   0.000001
     48      -0.000259  -0.000111   0.000074
     49      -0.000116  -0.000300   0.000283
     50      -0.000001  -0.000001   0.000001
     51      -0.000288   0.000760  -0.000744
     52       0.000368  -0.002396   0.002121
     53       0.000001  -0.000019   0.000018
     54       0.001295  -0.012113   0.011755
     55      -0.002111   0.015047  -0.014389
     56      -0.000005   0.000031  -0.000030
     57       0.000300   0.000136   0.000238
     58      -0.000417   0.009141  -0.007364
     59       0.000945  -0.013524   0.010996
     60       0.000300   0.000165   0.000209
     61      -0.000417   0.009201  -0.007434
     62      -0.000948   0.013743  -0.011207


-----------
IR SPECTRUM
-----------

 Mode   freq       eps      Int      T**2         TX        TY        TZ
       cm**-1   L/(mol*cm) km/mol    a.u.
----------------------------------------------------------------------------
  6:     52.47   0.001474    7.45  0.008764  (-0.000077  0.000038  0.093617)
  7:     83.88   0.000575    2.90  0.002138  (-0.000099 -0.000398  0.046239)
  8:    155.40   0.000083    0.42  0.000166  (-0.000363 -0.000062 -0.012872)
  9:    158.51   0.000993    5.02  0.001956  (-0.032290 -0.030214 -0.000075)
 10:    178.33   0.000013    0.07  0.000023  (-0.000065 -0.000185  0.004815)
 11:    212.45   0.000122    0.62  0.000179  (-0.000057 -0.000215 -0.013394)
 12:    268.32   0.001500    7.58  0.001744  (-0.041028  0.007820  0.000079)
 13:    275.72   0.000177    0.90  0.000201  (-0.000183  0.000041 -0.014161)
 14:    322.50   0.000115    0.58  0.000112  ( 0.003873 -0.009829 -0.000055)
 15:    419.40   0.000139    0.70  0.000103  ( 0.000855 -0.000125 -0.010136)
 16:    420.35   0.000108    0.55  0.000080  ( 0.008152 -0.003559  0.001150)
 17:    494.29   0.000389    1.96  0.000245  (-0.005540  0.014653  0.000194)
 18:    510.92   0.001223    6.18  0.000747  (-0.000114  0.000328 -0.027325)
 19:    555.19   0.001219    6.16  0.000685  ( 0.005648  0.025563  0.000088)
 20:    577.91   0.008728   44.11  0.004713  (-0.068438 -0.005412 -0.000009)
 21:    631.33   0.000066    0.33  0.000033  (-0.000260 -0.000141 -0.005700)
 22:    687.25   0.006617   33.44  0.003005  (-0.000089 -0.000075  0.054816)
 23:    700.06   0.004202   21.24  0.001873  ( 0.042806 -0.006387  0.000193)
 24:    778.27   0.012426   62.80  0.004983  (-0.000019  0.000075 -0.070588)
 25:    840.32   0.007379   37.29  0.002740  ( 0.041807 -0.031503 -0.000129)
 26:    885.53   0.000519    2.62  0.000183  (-0.000008 -0.000030  0.013519)
 27:    900.96   0.004686   23.68  0.001623  ( 0.000112  0.000037 -0.040286)
 28:    959.93   0.021851  110.43  0.007104  (-0.080033 -0.026425  0.000037)
 29:    960.60   0.000032    0.16  0.000010  (-0.001936 -0.000487 -0.002510)
 30:    993.77   0.000296    1.50  0.000093  (-0.002300  0.009361  0.000038)
 31:   1025.84   0.000276    1.40  0.000084  ( 0.001839  0.000317 -0.008974)
 32:   1027.45   0.021951  110.93  0.006667  ( 0.079765  0.017451  0.000263)
 33:   1063.84   0.001381    6.98  0.000405  (-0.012789  0.015543  0.000023)
 34:   1108.54   0.003363   16.99  0.000947  ( 0.000010  0.030767  0.000065)
 35:   1149.24   0.000284    1.44  0.000077  ( 0.000003 -0.000028  0.008788)
 36:   1174.15   0.001926    9.73  0.000512  ( 0.012611 -0.018786 -0.000054)
 37:   1184.31   0.002239   11.31  0.000590  ( 0.024284  0.000489 -0.000024)
 38:   1215.81   0.010480   52.96  0.002690  ( 0.019926 -0.047884 -0.000143)
 39:   1264.97   0.135210  683.30  0.033356  ( 0.182460  0.008004  0.000031)
 40:   1293.14   0.005715   28.88  0.001379  (-0.035362  0.011348  0.000053)
 41:   1355.47   0.005297   26.77  0.001219  ( 0.024094  0.025278  0.000054)
 42:   1364.46   0.010692   54.03  0.002445  ( 0.044133 -0.022308 -0.000031)
 43:   1441.74   0.027006  136.48  0.005845  ( 0.075803 -0.009970 -0.000087)
 44:   1452.64   0.004774   24.13  0.001026  ( 0.005548  0.031534  0.000665)
 45:   1459.43   0.002778   14.04  0.000594  (-0.000741 -0.001374  0.024321)
 46:   1459.84   0.007180   36.28  0.001535  ( 0.032646  0.021650  0.000603)
 47:   1479.94   0.002224   11.24  0.000469  (-0.000030  0.000092 -0.021653)
 48:   1489.69   0.001209    6.11  0.000253  (-0.013183  0.008916  0.000061)
 49:   1492.32   0.012366   62.49  0.002586  ( 0.043546 -0.026261 -0.000061)
 50:   1582.28   0.024093  121.76  0.004752  ( 0.047770 -0.049697 -0.000111)
 51:   1601.37   0.013587   68.66  0.002648  (-0.005256  0.051187  0.000071)
 52:   1658.12   0.064277  324.83  0.012097  ( 0.032187  0.105172  0.000059)
 53:   2987.83   0.010913   55.15  0.001140  (-0.031215 -0.012863 -0.000051)
 54:   3006.27   0.000213    1.07  0.000022  ( 0.000474  0.004674  0.000039)
 55:   3050.62   0.008643   43.68  0.000884  (-0.000004 -0.000060  0.029735)
 56:   3059.82   0.000964    4.87  0.000098  (-0.000097  0.000053 -0.009917)
 57:   3111.58   0.005846   29.54  0.000586  ( 0.019875  0.013830  0.000028)
 58:   3115.15   0.004877   24.64  0.000489  (-0.015488  0.015769  0.000034)
 59:   3142.95   0.002895   14.63  0.000287  (-0.000733  0.016938  0.000040)
 60:   3162.67   0.001403    7.09  0.000138  ( 0.011489 -0.002532 -0.000013)
 61:   3171.60   0.001929    9.75  0.000190  (-0.012785  0.005135  0.000008)
 62:   3175.43   0.001274    6.44  0.000125  ( 0.001780  0.011047  0.000027)

* The epsilon (eps) is given for a Dirac delta lineshape.
** The dipole moment derivative (T) already includes vibrational overlap.

The first frequency considered to be a vibration is 6
The total number of vibrations considered is 57


--------------------------
THERMOCHEMISTRY AT 298.15K
--------------------------

Temperature         ... 298.15 K
Pressure            ... 1.00 atm
Total Mass          ... 150.18 AMU

Throughout the following assumptions are being made:
  (1) The electronic state is orbitally nondegenerate
  (2) There are no thermally accessible electronically excited states
  (3) Hindered rotations indicated by low frequency modes are not
      treated as such but are treated as vibrations and this may
      cause some error
  (4) All equations used are the standard statistical mechanics
      equations for an ideal gas
  (5) All vibrations are strictly harmonic

freq.      52.47  E(vib)   ...       0.52 
freq.      83.88  E(vib)   ...       0.48 
freq.     155.40  E(vib)   ...       0.40 
freq.     158.51  E(vib)   ...       0.39 
freq.     178.33  E(vib)   ...       0.37 
freq.     212.45  E(vib)   ...       0.34 
freq.     268.32  E(vib)   ...       0.29 
freq.     275.72  E(vib)   ...       0.28 
freq.     322.50  E(vib)   ...       0.25 
freq.     419.40  E(vib)   ...       0.18 
freq.     420.35  E(vib)   ...       0.18 
freq.     494.29  E(vib)   ...       0.14 
freq.     510.92  E(vib)   ...       0.14 
freq.     555.19  E(vib)   ...       0.12 
freq.     577.91  E(vib)   ...       0.11 
freq.     631.33  E(vib)   ...       0.09 
freq.     687.25  E(vib)   ...       0.07 
freq.     700.06  E(vib)   ...       0.07 
freq.     778.27  E(vib)   ...       0.05 
freq.     840.32  E(vib)   ...       0.04 
freq.     885.53  E(vib)   ...       0.04 
freq.     900.96  E(vib)   ...       0.03 
freq.     959.93  E(vib)   ...       0.03 
freq.     960.60  E(vib)   ...       0.03 
freq.     993.77  E(vib)   ...       0.02 
freq.    1025.84  E(vib)   ...       0.02 
freq.    1027.45  E(vib)   ...       0.02 
freq.    1063.84  E(vib)   ...       0.02 
freq.    1108.54  E(vib)   ...       0.02 
freq.    1149.24  E(vib)   ...       0.01 
freq.    1174.15  E(vib)   ...       0.01 
freq.    1184.31  E(vib)   ...       0.01 
freq.    1215.81  E(vib)   ...       0.01 
freq.    1264.97  E(vib)   ...       0.01 
freq.    1293.14  E(vib)   ...       0.01 
freq.    1355.47  E(vib)   ...       0.01 
freq.    1364.46  E(vib)   ...       0.01 
freq.    1441.74  E(vib)   ...       0.00 
freq.    1452.64  E(vib)   ...       0.00 
freq.    1459.43  E(vib)   ...       0.00 
freq.    1459.84  E(vib)   ...       0.00 
freq.    1479.94  E(vib)   ...       0.00 
freq.    1489.69  E(vib)   ...       0.00 
freq.    1492.32  E(vib)   ...       0.00 
freq.    1582.28  E(vib)   ...       0.00 
freq.    1601.37  E(vib)   ...       0.00 
freq.    1658.12  E(vib)   ...       0.00 
freq.    2987.83  E(vib)   ...       0.00 
freq.    3006.27  E(vib)   ...       0.00 
freq.    3050.62  E(vib)   ...       0.00 
freq.    3059.82  E(vib)   ...       0.00 
freq.    3111.58  E(vib)   ...       0.00 
freq.    3115.15  E(vib)   ...       0.00 
freq.    3142.95  E(vib)   ...       0.00 
freq.    3162.67  E(vib)   ...       0.00 
freq.    3171.60  E(vib)   ...       0.00 
freq.    3175.43  E(vib)   ...       0.00 

------------
INNER ENERGY
------------

The inner energy is: U= E(el) + E(ZPE) + E(vib) + E(rot) + E(trans)
    E(el)   - is the total energy from the electronic structure calculation
              = E(kin-el) + E(nuc-el) + E(el-el) + E(nuc-nuc)
    E(ZPE)  - the the zero temperature vibrational energy from the frequency calculation
    E(vib)  - the the finite temperature correction to E(ZPE) due to population
              of excited vibrational states
    E(rot)  - is the rotational thermal energy
    E(trans)- is the translational thermal energy

Summary of contributions to the inner energy U:
Electronic energy                ...   -499.72602700 Eh
Zero point energy                ...      0.16710860 Eh     104.86 kcal/mol
Thermal vibrational correction   ...      0.00772902 Eh       4.85 kcal/mol
Thermal rotational correction    ...      0.00141627 Eh       0.89 kcal/mol
Thermal translational correction ...      0.00141627 Eh       0.89 kcal/mol
-----------------------------------------------------------------------
Total thermal energy                   -499.54835683 Eh


Summary of corrections to the electronic energy:
(perhaps to be used in another calculation)
Total thermal correction                  0.01056157 Eh       6.63 kcal/mol
Non-thermal (ZPE) correction              0.16710860 Eh     104.86 kcal/mol
-----------------------------------------------------------------------
Total correction                          0.17767017 Eh     111.49 kcal/mol


--------
ENTHALPY
--------

The enthalpy is H = U + kB*T
                kB is Boltzmann's constant
Total free energy                 ...   -499.54835683 Eh 
Thermal Enthalpy correction       ...      0.00094421 Eh       0.59 kcal/mol
-----------------------------------------------------------------------
Total Enthalpy                    ...   -499.54741262 Eh


Note: Only C1 symmetry has been detected, increase convergence thresholds 
      if your molecule has a higher symmetry. Symmetry factor of 1.0 is   
      used for the rotational entropy correction. 
 

Note: Rotational entropy computed according to Herzberg 
Infrared and Raman Spectra, Chapter V,1, Van Nostrand Reinhold, 1945 
Point Group:  C1, Symmetry Number:   1  
Rotational constants in cm-1:     0.081931     0.021842     0.017358 

Vibrational entropy computed according to the QRRHO of S. Grimme
Chem.Eur.J. 2012 18 9955


-------
ENTROPY
-------

The entropy contributions are T*S = T*(S(el)+S(vib)+S(rot)+S(trans))
     S(el)   - electronic entropy
     S(vib)  - vibrational entropy
     S(rot)  - rotational entropy
     S(trans)- translational entropy
The entropies will be listed as multiplied by the temperature to get
units of energy

Electronic entropy                ...      0.00000000 Eh      0.00 kcal/mol
Vibrational entropy               ...      0.01315340 Eh      8.25 kcal/mol
Rotational entropy                ...      0.01441087 Eh      9.04 kcal/mol
Translational entropy             ...      0.01944716 Eh     12.20 kcal/mol
-----------------------------------------------------------------------
Final entropy term                ...      0.04701143 Eh     29.50 kcal/mol

In case the symmetry of your molecule has not been determined correctly
or in case you have a reason to use a different symmetry number we print 
out the resulting rotational entropy values for sn=1,12 :
 --------------------------------------------------------
|  sn= 1 | S(rot)=       0.01441087 Eh      9.04 kcal/mol|
|  sn= 2 | S(rot)=       0.01375641 Eh      8.63 kcal/mol|
|  sn= 3 | S(rot)=       0.01337358 Eh      8.39 kcal/mol|
|  sn= 4 | S(rot)=       0.01310195 Eh      8.22 kcal/mol|
|  sn= 5 | S(rot)=       0.01289126 Eh      8.09 kcal/mol|
|  sn= 6 | S(rot)=       0.01271912 Eh      7.98 kcal/mol|
|  sn= 7 | S(rot)=       0.01257357 Eh      7.89 kcal/mol|
|  sn= 8 | S(rot)=       0.01244750 Eh      7.81 kcal/mol|
|  sn= 9 | S(rot)=       0.01233629 Eh      7.74 kcal/mol|
|  sn=10 | S(rot)=       0.01223681 Eh      7.68 kcal/mol|
|  sn=11 | S(rot)=       0.01214682 Eh      7.62 kcal/mol|
|  sn=12 | S(rot)=       0.01206466 Eh      7.57 kcal/mol|
 --------------------------------------------------------


-------------------
GIBBS FREE ENERGY
-------------------

The Gibbs free energy is G = H - T*S

Total enthalpy                    ...   -499.54741262 Eh 
Total entropy correction          ...     -0.04701143 Eh    -29.50 kcal/mol
-----------------------------------------------------------------------
Final Gibbs free energy         ...   -499.59442405 Eh

For completeness - the Gibbs free energy minus the electronic energy
G-E(el)                           ...      0.13160295 Eh     82.58 kcal/mol



Timings for individual modules:

Sum of individual times         ...     4153.487 sec (=  69.225 min)
GTO integral calculation        ...        9.373 sec (=   0.156 min)   0.2 %
SCF iterations                  ...      263.171 sec (=   4.386 min)   6.3 %
SCF Gradient evaluation         ...       82.877 sec (=   1.381 min)   2.0 %
Geometry relaxation             ...        0.694 sec (=   0.012 min)   0.0 %
Numerical frequency calculation ...     3797.371 sec (=  63.290 min)  91.4 %
                             ****ORCA TERMINATED NORMALLY****
TOTAL RUN TIME: 0 days 1 hours 8 minutes 54 seconds 497 msec
‘Keton_freqopt.cpcm’ -> ‘/home/rothe/Calc/Li_Path/THF/Keton/Keton_freqopt.cpcm’
‘Keton_freqopt.densities’ -> ‘/home/rothe/Calc/Li_Path/THF/Keton/Keton_freqopt.densities’
‘Keton_freqopt.engrad’ -> ‘/home/rothe/Calc/Li_Path/THF/Keton/Keton_freqopt.engrad’
‘Keton_freqopt.err’ -> ‘/home/rothe/Calc/Li_Path/THF/Keton/Keton_freqopt.err’
‘Keton_freqopt.gbw’ -> ‘/home/rothe/Calc/Li_Path/THF/Keton/Keton_freqopt.gbw’
‘Keton_freqopt.hess’ -> ‘/home/rothe/Calc/Li_Path/THF/Keton/Keton_freqopt.hess’
‘Keton_freqopt.job’ -> ‘/home/rothe/Calc/Li_Path/THF/Keton/Keton_freqopt.job’
‘Keton_freqopt.opt’ -> ‘/home/rothe/Calc/Li_Path/THF/Keton/Keton_freqopt.opt’
‘Keton_freqopt_property.txt’ -> ‘/home/rothe/Calc/Li_Path/THF/Keton/Keton_freqopt_property.txt’
‘Keton_freqopt_trj.xyz’ -> ‘/home/rothe/Calc/Li_Path/THF/Keton/Keton_freqopt_trj.xyz’
‘Keton_freqopt.xyz’ -> ‘/home/rothe/Calc/Li_Path/THF/Keton/Keton_freqopt.xyz’
