21
 energy: -32.477661781121 gnorm: 0.047155865992 xtb: 6.4.1 (afa7bdf)
C        -2.92370934370000   -0.04701256080000    0.22308366570000
C        -2.88547141330000   -1.44117701090000    0.22061097570000
C        -1.65822543860000   -2.10952826230000    0.21819771870000
C        -0.46172895510000   -1.38951878380000    0.21840554160000
C        -0.48865316400000    0.00897510780000    0.22145128530000
C        -1.72419021840000    0.67090408720000    0.22357967680000
H        -1.75949320380000    1.75935713440000    0.22561575950000
H        -3.79187710260000   -2.03786266460000    0.22040946960000
H        -1.63655721580000   -3.19711422840000    0.21606699760000
H         0.47230619230000   -1.94318411860000    0.21597152790000
C         0.75932979700000    0.82933806490000    0.22224564280000
C         2.09279398610000    0.12823596760000    0.22531877660000
H         2.19450207780000   -0.49041943730000    1.12067289330000
H         2.89183495570000    0.87622862250000    0.23933373640000
H         2.20692606360000   -0.47232741010000   -0.68078529830000
O         0.69005581420000    2.05664940980000    0.21931466180000
O        -4.05200617710000    0.72539765170000    0.22523998410000
C        -5.30112397140000    0.04622225890000    0.22307314160000
H        -6.09265344050000    0.80179433090000    0.22386462640000
H        -5.42078291790000   -0.56252191960000    1.12537036920000
H        -5.41957341550000   -0.55928620790000   -0.68156665390000
21
 energy: -32.479732908842 gnorm: 0.015349631193 xtb: 6.4.1 (afa7bdf)
C        -2.91525820299610   -0.04842642590235    0.22303855304320
C        -2.87707990697036   -1.43867723974676    0.22051027006422
C        -1.65412840705709   -2.09579151240908    0.21807447034728
C        -0.46459906667739   -1.38722037625202    0.21845805973447
C        -0.48884179930958    0.00771679784872    0.22146462025224
C        -1.71679216756214    0.66422849387657    0.22357679748906
H        -1.74733512245172    1.74461850236473    0.22563713602588
H        -3.78192540640607   -2.02939158756816    0.22032911533919
H        -1.63497111800768   -3.17682093011611    0.21592182424031
H         0.46690552129489   -1.93345169061629    0.21594378653996
C         0.74646425050452    0.83804985159267    0.22205077414565
C         2.07693596360913    0.13130825581358    0.22584455914493
H         2.17117878662717   -0.49945102376189    1.10801090158849
H         2.87360012841018    0.87551853202331    0.23836601520463
H         2.18328943818221   -0.48185927620206   -0.66729937776229
O         0.68101471914362    2.05122150393595    0.21939691162409
O        -4.04747913866871    0.71053198754521    0.22515823335095
C        -5.29366975341738    0.04319644027426    0.22312254826891
H        -6.05962351946671    0.82101091714718    0.22400543991365
H        -5.41359422152314   -0.57320192513843    1.11876256666631
H        -5.41238806825767   -0.56995926330903   -0.67489870682113
21
 energy: -32.479988237135 gnorm: 0.003322486145 xtb: 6.4.1 (afa7bdf)
C        -2.91097209301231   -0.04804935584185    0.22298422333429
C        -2.87266179671318   -1.43827021492698    0.22037595479100
C        -1.64987482617739   -2.09097931255927    0.21791312993987
C        -0.46263564656346   -1.38770913869114    0.21832619910900
C        -0.48756941131913    0.00758469671949    0.22140817522144
C        -1.71259504408684    0.66204030139457    0.22349790729283
H        -1.73971785054574    1.73986290598146    0.22564295290938
H        -3.77820520657138   -2.02434836674665    0.22013678274650
H        -1.63247885918790   -3.17034659671721    0.21566189424450
H         0.46955164269586   -1.92841247520456    0.21585602998368
C         0.73985853829214    0.84743441236688    0.22244044613344
C         2.06762547758474    0.13160275091948    0.22617660417199
H         2.15353014509309   -0.50436849303802    1.10414378891481
H         2.86625695077861    0.86970960023511    0.23738846506136
H         2.16484520083014   -0.48822276717834   -0.66231690164065
O         0.67693789187906    2.05580566937396    0.21935088769402
O        -4.04485199453723    0.70254434306763    0.22510872792250
C        -5.28872118334707    0.04145114727605    0.22319782127054
H        -6.04040899564757    0.82979959382602    0.22418722149255
H        -5.41364698394230   -0.57861873031311    1.11602077445067
H        -5.41256304650213   -0.57535993854353   -0.67202658664371
21
 energy: -32.480003416367 gnorm: 0.001300161940 xtb: 6.4.1 (afa7bdf)
C        -2.91070656745386   -0.04788396532966    0.22296939759465
C        -2.87159450642706   -1.43868893934451    0.22026617843188
C        -1.64813756709319   -2.09100236150509    0.21776714944907
C        -0.46087183127716   -1.38795896252964    0.21825667157047
C        -0.48698450393512    0.00792145324108    0.22142419694663
C        -1.71227156594813    0.66211127483828    0.22358458512248
H        -1.73833569680730    1.74029646316810    0.22571374624601
H        -3.77767864455122   -2.02371486609452    0.22001010276857
H        -1.63103154786812   -3.17081418369004    0.21544562556560
H         0.47221530049678   -1.92710415024460    0.21571223540323
C         0.73932095204340    0.84975062153699    0.22216124454021
C         2.06667776189594    0.13134674544465    0.22630229205422
H         2.14866881959688   -0.50431726604449    1.10497854552791
H         2.86800623450742    0.86594334631053    0.23693494223058
H         2.15976168502451   -0.48932232561071   -0.66217592845098
O         0.67672584129482    2.05822256935647    0.21933583217615
O        -4.04482520856403    0.70077999428907    0.22512453978516
C        -5.28855933450427    0.04161363814559    0.22325845004561
H        -6.03846268042074    0.83085580762915    0.22431350003794
H        -5.41559777258861   -0.57909556890464    1.11585150507961
H        -5.41461625842095   -0.57578929326199   -0.67176031372501
21
 energy: -32.480006081498 gnorm: 0.000717927253 xtb: 6.4.1 (afa7bdf)
C        -2.91080564055299   -0.04778620315128    0.22289217444191
C        -2.87031749902024   -1.43915857592650    0.22004925807772
C        -1.64635891418826   -2.09116883638061    0.21748060258631
C        -0.45914495371701   -1.38767720960777    0.21800816174580
C        -0.48658242985301    0.00863646045207    0.22128059912244
C        -1.71245073588201    0.66250182209066    0.22346070892279
H        -1.73734981649373    1.74122290545333    0.22579516023065
H        -3.77692170480557   -2.02351373377395    0.21968332651940
H        -1.62928180203763   -3.17150045422719    0.21502923975730
H         0.47480333575072   -1.92553016274946    0.21551816650811
C         0.73941615219600    0.85129538553489    0.22257625764124
C         2.06638505091861    0.13065413534171    0.22647840764639
H         2.14517923361168   -0.50322578743595    1.10677335574340
H         2.87071097961000    0.86166989916221    0.23572102986430
H         2.15528454291910   -0.49070488300505   -0.66200368963644
O         0.67682813087411    2.06002866121782    0.21928609965912
O        -4.04513803576070    0.69925292352178    0.22513108471276
C        -5.28895088354745    0.04187411372702    0.22339476073614
H        -6.03843554498005    0.83128601980043    0.22459724070307
H        -5.41794942488240   -0.57920920007046    1.11600044025133
H        -5.41721713115917   -0.57579724857369   -0.67167788683373
