      -----------------------------------------------------------      
     |                   =====================                   |     
     |                           x T B                           |     
     |                   =====================                   |     
     |                         S. Grimme                         |     
     |          Mulliken Center for Theoretical Chemistry        |     
     |                    University of Bonn                     |     
      -----------------------------------------------------------      

   * xtb version 6.4.1 (afa7bdf) compiled by 'ehlert@majestix' on 2021-06-10

   xtb is free software: you can redistribute it and/or modify it under
   the terms of the GNU Lesser General Public License as published by
   the Free Software Foundation, either version 3 of the License, or
   (at your option) any later version.
   
   xtb is distributed in the hope that it will be useful,
   but WITHOUT ANY WARRANTY; without even the implied warranty of
   MERCHANTABILITY or FITNESS FOR A PARTICULAR PURPOSE.  See the
   GNU Lesser General Public License for more details.
   
   Cite this work as:
   * C. Bannwarth, E. Caldeweyher, S. Ehlert, A. Hansen, P. Pracht,
     J. Seibert, S. Spicher, S. Grimme, WIREs Comput. Mol. Sci., 2020, 11,
     e01493. DOI: 10.1002/wcms.1493
   
   for GFN2-xTB:
   * C. Bannwarth, S. Ehlert and S. Grimme., J. Chem. Theory Comput., 2019,
     15, 1652-1671. DOI: 10.1021/acs.jctc.8b01176
   for GFN1-xTB:
   * S. Grimme, C. Bannwarth, P. Shushkov, J. Chem. Theory Comput., 2017,
     13, 1989-2009. DOI: 10.1021/acs.jctc.7b00118
   for GFN0-xTB:
   * P. Pracht, E. Caldeweyher, S. Ehlert, S. Grimme, ChemRxiv, 2019, preprint.
     DOI: 10.26434/chemrxiv.8326202.v1
   for GFN-FF:
   * S. Spicher and S. Grimme, Angew. Chem. Int. Ed., 2020, 59, 15665-15673.
     DOI: 10.1002/anie.202004239
   
   for DFT-D4:
   * E. Caldeweyher, C. Bannwarth and S. Grimme, J. Chem. Phys., 2017,
     147, 034112. DOI: 10.1063/1.4993215
   * E. Caldeweyher, S. Ehlert, A. Hansen, H. Neugebauer, S. Spicher,
     C. Bannwarth and S. Grimme, J. Chem. Phys., 2019, 150, 154122.
     DOI: 10.1063/1.5090222
   * E. Caldeweyher, J.-M. Mewes, S. Ehlert and S. Grimme, Phys. Chem. Chem. Phys.
     2020, 22, 8499-8512. DOI: 10.1039/D0CP00502A
   
   for sTDA-xTB:
   * S. Grimme and C. Bannwarth, J. Chem. Phys., 2016, 145, 054103.
     DOI: 10.1063/1.4959605
   
   in the mass-spec context:
   * V. Asgeirsson, C. Bauer and S. Grimme, Chem. Sci., 2017, 8, 4879.
     DOI: 10.1039/c7sc00601b
   * J. Koopman and S. Grimme, ACS Omega 2019, 4, 12, 15120-15133.
     DOI: 10.1021/acsomega.9b02011
   
   for metadynamics refer to:
   * S. Grimme, J. Chem. Theory Comput., 2019, 155, 2847-2862
     DOI: 10.1021/acs.jctc.9b00143
   
   for SPH calculations refer to:
   * S. Spicher and S. Grimme, J. Chem. Theory Comput., 2021, 17, 1701-1714
     DOI: 10.1021/acs.jctc.0c01306
   
   with help from (in alphabetical order)
   P. Atkinson, C. Bannwarth, F. Bohle, G. Brandenburg, E. Caldeweyher
   M. Checinski, S. Dohm, S. Ehlert, S. Ehrlich, I. Gerasimov, J. Koopman
   C. Lavigne, S. Lehtola, F. März, M. Müller, F. Musil, H. Neugebauer
   J. Pisarek, C. Plett, P. Pracht, J. Seibert, P. Shushkov, S. Spicher
   M. Stahn, M. Steiner, T. Strunk, J. Stückrath, T. Rose, and J. Unsleber
   
 * started run on 2022/02/24 at 18:52:07.464     

           -------------------------------------------------
          |                Calculation Setup                |
           -------------------------------------------------

          program call               : xtb DiPA-H.xyz --opt --alpb thf
          hostname                   : clu
          coordinate file            : DiPA-H.xyz
          omp threads                :                     4
          number of atoms            :                    23
          number of electrons        :                    45
          charge                     :                     0
          spin                       :                   0.5
          first test random number   :      0.12041750142141

   ID    Z sym.   atoms
    1    7 N      1
    2    6 C      2, 4-6, 8, 9
    3    1 H      3, 7, 10-23

           -------------------------------------------------
          |                 G F N 2 - x T B                 |
           -------------------------------------------------

        Reference                      10.1021/acs.jctc.8b01176
      * Hamiltonian:
        H0-scaling (s, p, d)           1.850000    2.230000    2.230000
        zeta-weighting                 0.500000
      * Dispersion:
        s8                             2.700000
        a1                             0.520000
        a2                             5.000000
        s9                             5.000000
      * Repulsion:
        kExp                           1.500000    1.000000
        rExp                           1.000000
      * Coulomb:
        alpha                          2.000000
        third order                    shell-resolved
        anisotropic                    true
        a3                             3.000000
        a5                             4.000000
        cn-shift                       1.200000
        cn-exp                         4.000000
        max-rad                        5.000000

      * Solvation model:               ALPB
        Solvent                        thf
        Parameter file                 internal GFN2-xTB/ALPB
        Dielectric constant                7.6000E+00
        Reference state                gsolv [1 M gas/solution]
        Free energy shift                  5.3248E-03 Eh       3.3414E+00 kcal/mol
        Temperature                        2.9815E+02 K
        Density                            8.8300E-01 kg/L
        Solvent mass                       7.2106E+01 g/mol
        Interaction kernel             P16
        Born radius scaling (c1)           1.7311E+00
        Born radii integrator          GBOBC
        Born offset                        0.0000E+00 a0       0.0000E+00 AA
        H-bond correction              true
        Ion screening                  false
        Surface tension                    1.0000E-05 Eh       1.5569E+01 dyn/cm
        Grid points                               230 per atom
q/qsh data taken from xtbrestart
CAMM data taken from xtbrestart

          ...................................................
          :                      SETUP                      :
          :.................................................:
          :  # basis functions                  44          :
          :  # atomic orbitals                  44          :
          :  # shells                           30          :
          :  # electrons                        45          :
          :  max. iterations                   250          :
          :  Hamiltonian                  GFN2-xTB          :
          :  restarted?                       true          :
          :  GBSA solvation                   true          :
          :  PC potential                    false          :
          :  electronic temp.          300.0000000     K    :
          :  accuracy                    1.0000000          :
          :  -> integral cutoff          0.2500000E+02      :
          :  -> integral neglect         0.1000000E-07      :
          :  -> SCF convergence          0.1000000E-05 Eh   :
          :  -> wf. convergence          0.1000000E-03 e    :
          :  Broyden damping             0.4000000          :
          ...................................................

 iter      E             dE          RMSdq      gap      omega  full diag
   1    -23.9738402 -0.239738E+02  0.233E+00    2.38       0.0  T
   2    -24.0031730 -0.293328E-01  0.132E+00    2.45       1.0  T
   3    -24.0052950 -0.212207E-02  0.728E-01    2.45       1.0  T
   4    -24.0074841 -0.218911E-02  0.185E-01    2.46       1.0  T
   5    -24.0078933 -0.409147E-03  0.399E-02    2.46       1.0  T
   6    -24.0078944 -0.114617E-05  0.179E-02    2.46       1.2  T
   7    -24.0078953 -0.821469E-06  0.349E-03    2.46       6.0  T
   8    -24.0078953 -0.398184E-07  0.131E-03    2.46      16.0  T
   9    -24.0078953 -0.172740E-08  0.222E-04    2.46      93.8  T
  10    -24.0078953 -0.770974E-10  0.108E-04    2.46     193.1  T

   *** convergence criteria satisfied after 10 iterations ***

         #    Occupation            Energy/Eh            Energy/eV
      -------------------------------------------------------------
         1        2.0000           -0.6346733             -17.2703
       ...           ...                  ...                  ...
        17        2.0000           -0.4463120             -12.1448
        18        2.0000           -0.4384933             -11.9320
        19        2.0000           -0.4249922             -11.5646
        20        2.0000           -0.4235022             -11.5241
        21        2.0000           -0.4225165             -11.4973
        22        2.0000           -0.4148034             -11.2874
        23        1.0000           -0.0296649              -0.8072 (HOMO)
        24                          0.0607731               1.6537 (LUMO)
        25                          0.0725375               1.9738
        26                          0.0911870               2.4813
        27                          0.1105800               3.0090
        28                          0.1271986               3.4612
       ...                                ...                  ...
        44                          0.3195387               8.6951
      -------------------------------------------------------------
                  HL-Gap            0.0904380 Eh            2.4609 eV
             Fermi-level           -0.1033400 Eh           -2.8120 eV

 SCC (total)                   0 d,  0 h,  0 min,  0.024 sec
 SCC setup                      ...        0 min,  0.001 sec (  3.351%)
 Dispersion                     ...        0 min,  0.000 sec (  1.570%)
 classical contributions        ...        0 min,  0.000 sec (  0.251%)
 integral evaluation            ...        0 min,  0.002 sec (  7.668%)
 iterations                     ...        0 min,  0.016 sec ( 67.041%)
 molecular gradient             ...        0 min,  0.005 sec ( 19.085%)
 printout                       ...        0 min,  0.000 sec (  0.860%)

         :::::::::::::::::::::::::::::::::::::::::::::::::::::
         ::                     SUMMARY                     ::
         :::::::::::::::::::::::::::::::::::::::::::::::::::::
         :: total energy             -23.677971909633 Eh    ::
         :: total w/o Gsasa/hb       -23.668434244262 Eh    ::
         :: gradient norm              0.284025641911 Eh/a0 ::
         :: HOMO-LUMO gap              2.460943170170 eV    ::
         ::.................................................::
         :: SCC energy               -24.007895302506 Eh    ::
         :: -> isotropic ES            0.010365797083 Eh    ::
         :: -> anisotropic ES          0.008019970514 Eh    ::
         :: -> anisotropic XC          0.017043928717 Eh    ::
         :: -> dispersion             -0.014692659995 Eh    ::
         :: -> Gsolv                  -0.010261316706 Eh    ::
         ::    -> Gelec               -0.000723651335 Eh    ::
         ::    -> Gsasa               -0.013918081156 Eh    ::
         ::    -> Ghb                 -0.000944399659 Eh    ::
         ::    -> Gshift               0.005324815444 Eh    ::
         :: repulsion energy           0.329845929878 Eh    ::
         :: add. restraining           0.000000000000 Eh    ::
         :: total charge              -0.000000000000 e     ::
         :::::::::::::::::::::::::::::::::::::::::::::::::::::

      ----------------------------------------------------------- 
     |                   =====================                   |
     |                        A N C O P T                        |
     |                   =====================                   |
     |               Approximate Normal Coordinate               |
     |                Rational Function Optimizer                |
      ----------------------------------------------------------- 

          ...................................................
          :                      SETUP                      :
          :.................................................:
          :   optimization level            normal          :
          :   max. optcycles                   200          :
          :   ANC micro-cycles                  20          :
          :   degrees of freedom                63          :
          :.................................................:
          :   RF solver                   davidson          :
          :   write xtbopt.log                true          :
          :   linear?                        false          :
          :   energy convergence         0.5000000E-05 Eh   :
          :   grad. convergence          0.1000000E-02 Eh/α :
          :   maximium RF displ.         1.0000000          :
          :   Hlow (freq-cutoff)         0.1000000E-01      :
          :   Hmax (freq-cutoff)         5.0000000          :
          :   S6 in model hess.         20.0000000          :
          ...................................................

generating ANC from model Hessian ...
Using Lindh-Hessian (1995)
 Shifting diagonal of input Hessian by   8.516793598666760E-003
 Lowest  eigenvalues of input Hessian
    0.000000    0.000000    0.000000    0.000000    0.000000    0.000000
    0.010000    0.011269    0.013074    0.016398    0.017321    0.017539
    0.017976    0.018230    0.020158    0.021617    0.027619    0.030755
 Highest eigenvalues
    1.206706    1.236526    1.267655    1.353927    1.361994    1.393160
 

........................................................................
.............................. CYCLE    1 ..............................
........................................................................
   1    -24.0078953 -0.240079E+02  0.168E-05    2.46       0.0  T
   2    -24.0078953 -0.291323E-12  0.951E-06    2.46    2192.2  T
   3    -24.0078953 -0.603961E-13  0.243E-06    2.46    8593.7  T
     SCC iter.                  ...        0 min,  0.006 sec
     gradient                   ...        0 min,  0.004 sec
 * total energy  :   -23.6779719 Eh     change       -0.1113065E-10 Eh
   gradient norm :     0.2840258 Eh/α   predicted     0.0000000E+00 (-100.00%)
   displ. norm   :     0.4963893 α      lambda       -0.1095996E+00
   maximum displ.:     0.2618774 α      in ANC's #46, #13, #20, ...

........................................................................
.............................. CYCLE    2 ..............................
........................................................................
   1    -24.0751775 -0.240752E+02  0.477E-01    2.19       0.0  T
   2    -24.0766956 -0.151811E-02  0.305E-01    2.21       1.0  T
   3    -24.0767190 -0.234313E-04  0.156E-01    2.20       1.0  T
   4    -24.0767218 -0.285834E-05  0.215E-02    2.20       1.0  T
   5    -24.0767254 -0.354552E-05  0.942E-03    2.20       2.2  T
   6    -24.0767255 -0.101254E-06  0.550E-03    2.20       3.8  T
   7    -24.0767260 -0.469446E-06  0.112E-03    2.20      18.6  T
   8    -24.0767260 -0.888045E-08  0.304E-04    2.20      68.5  T
   9    -24.0767260 -0.781313E-10  0.467E-05    2.20     446.8  T
     SCC iter.                  ...        0 min,  0.017 sec
     gradient                   ...        0 min,  0.004 sec
 * total energy  :   -23.7520729 Eh     change       -0.7410096E-01 Eh
   gradient norm :     0.1140272 Eh/α   predicted    -0.6831037E-01 (  -7.81%)
   displ. norm   :     0.5244603 α      lambda       -0.3518889E-01
   maximum displ.:     0.3468962 α      in ANC's #13, #4, #20, ...

........................................................................
.............................. CYCLE    3 ..............................
........................................................................
   1    -24.1119449 -0.241119E+02  0.333E-01    2.00       0.0  T
   2    -24.1126205 -0.675605E-03  0.190E-01    2.03       1.0  T
   3    -24.1126297 -0.917164E-05  0.997E-02    2.03       1.0  T
   4    -24.1126300 -0.333079E-06  0.122E-02    2.02       1.7  T
   5    -24.1126317 -0.170229E-05  0.631E-03    2.02       3.3  T
   6    -24.1126321 -0.436921E-06  0.369E-03    2.02       5.6  T
   7    -24.1126323 -0.158330E-06  0.126E-03    2.02      16.5  T
   8    -24.1126323 -0.685268E-08  0.153E-04    2.02     136.0  T
   9    -24.1126323 -0.267733E-10  0.262E-05    2.02     795.3  T
     SCC iter.                  ...        0 min,  0.014 sec
     gradient                   ...        0 min,  0.004 sec
 * total energy  :   -23.7778302 Eh     change       -0.2575733E-01 Eh
   gradient norm :     0.0457419 Eh/α   predicted    -0.2243398E-01 ( -12.90%)
   displ. norm   :     0.5862075 α      lambda       -0.1621416E-01
   maximum displ.:     0.4198738 α      in ANC's #13, #4, #12, ...

........................................................................
.............................. CYCLE    4 ..............................
........................................................................
   1    -24.1298517 -0.241299E+02  0.245E-01    2.02       0.0  T
   2    -24.1301668 -0.315029E-03  0.135E-01    2.05       1.0  T
   3    -24.1301728 -0.599412E-05  0.736E-02    2.04       1.0  T
   4    -24.1301538  0.190089E-04  0.321E-02    2.04       1.0  T
   5    -24.1301832 -0.294564E-04  0.838E-03    2.04       2.5  T
   6    -24.1301847 -0.153957E-05  0.308E-03    2.04       6.8  T
   7    -24.1301848 -0.183803E-07  0.107E-03    2.04      19.5  T
   8    -24.1301848 -0.796582E-09  0.182E-04    2.04     114.6  T
   9    -24.1301848 -0.339533E-10  0.213E-05    2.04     979.2  T
     SCC iter.                  ...        0 min,  0.015 sec
     gradient                   ...        0 min,  0.005 sec
 * total energy  :   -23.7897147 Eh     change       -0.1188454E-01 Eh
   gradient norm :     0.0149131 Eh/α   predicted    -0.1089303E-01 (  -8.34%)
   displ. norm   :     0.5756861 α      lambda       -0.7579317E-02
   maximum displ.:     0.3750860 α      in ANC's #4, #13, #12, ...

........................................................................
.............................. CYCLE    5 ..............................
........................................................................
   1    -24.1373582 -0.241374E+02  0.144E-01    2.17       0.0  T
   2    -24.1374701 -0.111893E-03  0.839E-02    2.18       1.0  T
   3    -24.1374747 -0.458178E-05  0.516E-02    2.18       1.0  T
   4    -24.1374734  0.129154E-05  0.287E-02    2.18       1.0  T
   5    -24.1374938 -0.204219E-04  0.514E-03    2.18       4.1  T
   6    -24.1374941 -0.310642E-06  0.225E-03    2.18       9.3  T
   7    -24.1374942 -0.694772E-08  0.698E-04    2.18      29.9  T
   8    -24.1374942 -0.417661E-09  0.155E-04    2.18     134.1  T
     SCC iter.                  ...        0 min,  0.013 sec
     gradient                   ...        0 min,  0.004 sec
 * total energy  :   -23.7955093 Eh     change       -0.5794532E-02 Eh
   gradient norm :     0.0185120 Eh/α   predicted    -0.5045662E-02 ( -12.92%)
   displ. norm   :     0.5840128 α      lambda       -0.4764119E-02
   maximum displ.:     0.4163622 α      in ANC's #4, #13, #3, ...

........................................................................
.............................. CYCLE    6 ..............................
........................................................................
   1    -24.1390611 -0.241391E+02  0.107E-01    2.38       0.0  T
   2    -24.1391062 -0.451371E-04  0.722E-02    2.39       1.0  T
   3    -24.1391351 -0.289082E-04  0.444E-02    2.39       1.0  T
   4    -24.1391482 -0.130088E-04  0.168E-02    2.39       1.2  T
   5    -24.1391529 -0.475011E-05  0.364E-03    2.39       5.7  T
   6    -24.1391530 -0.874626E-07  0.171E-03    2.39      12.2  T
   7    -24.1391530 -0.425484E-08  0.446E-04    2.39      46.8  T
   8    -24.1391530 -0.227971E-09  0.131E-04    2.39     158.9  T
     SCC iter.                  ...        0 min,  0.013 sec
     gradient                   ...        0 min,  0.005 sec
 * total energy  :   -23.7992165 Eh     change       -0.3707197E-02 Eh
   gradient norm :     0.0191448 Eh/α   predicted    -0.3194511E-02 ( -13.83%)
   displ. norm   :     0.5647830 α      lambda       -0.3259602E-02
   maximum displ.:     0.4031811 α      in ANC's #4, #13, #3, ...

........................................................................
.............................. CYCLE    7 ..............................
........................................................................
   1    -24.1376717 -0.241377E+02  0.111E-01    2.64       0.0  T
   2    -24.1377023 -0.305130E-04  0.862E-02    2.64       1.0  T
   3    -24.1378002 -0.979660E-04  0.445E-02    2.64       1.0  T
   4    -24.1378089 -0.872216E-05  0.725E-03    2.64       2.9  T
   5    -24.1378094 -0.493978E-06  0.293E-03    2.64       7.1  T
   6    -24.1378095 -0.259142E-07  0.135E-03    2.64      15.4  T
   7    -24.1378095 -0.428500E-08  0.297E-04    2.64      70.1  T
   8    -24.1378095 -0.140524E-09  0.129E-04    2.64     162.1  T
     SCC iter.                  ...        0 min,  0.013 sec
     gradient                   ...        0 min,  0.004 sec
 * total energy  :   -23.8016645 Eh     change       -0.2448063E-02 Eh
   gradient norm :     0.0194684 Eh/α   predicted    -0.2149676E-02 ( -12.19%)
   displ. norm   :     0.4696439 α      lambda       -0.2146155E-02
   maximum displ.:     0.3057816 α      in ANC's #4, #3, #9, ...

........................................................................
.............................. CYCLE    8 ..............................
........................................................................
   1    -24.1359639 -0.241360E+02  0.122E-01    2.94       0.0  T
   2    -24.1360500 -0.860553E-04  0.110E-01    2.90       1.0  T
   3    -24.1362761 -0.226129E-03  0.450E-02    2.92       1.0  T
   4    -24.1362769 -0.820134E-06  0.467E-03    2.92       4.5  T
   5    -24.1362770 -0.210638E-07  0.260E-03    2.92       8.0  T
   6    -24.1362770 -0.551322E-08  0.454E-04    2.92      45.9  T
   7    -24.1362770 -0.602828E-09  0.256E-04    2.92      81.4  T
     SCC iter.                  ...        0 min,  0.012 sec
     gradient                   ...        0 min,  0.005 sec
 * total energy  :   -23.8033766 Eh     change       -0.1712100E-02 Eh
   gradient norm :     0.0275100 Eh/α   predicted    -0.1309763E-02 ( -23.50%)
   displ. norm   :     0.5315685 α      lambda       -0.2934727E-02
   maximum displ.:     0.2941051 α      in ANC's #3, #4, #9, ...

........................................................................
.............................. CYCLE    9 ..............................
........................................................................
   1    -24.1345644 -0.241346E+02  0.195E-01    3.54       0.0  T
   2    -24.1351058 -0.541371E-03  0.180E-01    3.40       1.0  T
   3    -24.1356370 -0.531221E-03  0.747E-02    3.44       1.0  T
   4    -24.1356432 -0.620012E-05  0.938E-03    3.44       2.2  T
   5    -24.1356435 -0.308511E-06  0.536E-03    3.44       3.9  T
   6    -24.1356435 -0.319031E-07  0.204E-03    3.44      10.2  T
   7    -24.1356435 -0.170189E-07  0.510E-04    3.44      40.9  T
   8    -24.1356435 -0.309225E-09  0.119E-04    3.44     175.6  T
     SCC iter.                  ...        0 min,  0.013 sec
     gradient                   ...        0 min,  0.005 sec
 * total energy  :   -23.8061813 Eh     change       -0.2804643E-02 Eh
   gradient norm :     0.0492242 Eh/α   predicted    -0.1881999E-02 ( -32.90%)
   displ. norm   :     0.7832804 α      lambda       -0.7045357E-02
   maximum displ.:     0.4093184 α      in ANC's #3, #4, #9, ...

........................................................................
.............................. CYCLE   10 ..............................
........................................................................
   1    -24.1329610 -0.241330E+02  0.325E-01    5.63       0.0  T
   2    -24.1344148 -0.145374E-02  0.246E-01    5.30       1.0  T
   3    -24.1347668 -0.352058E-03  0.134E-01    5.37       1.0  T
   4    -24.1347745 -0.771586E-05  0.163E-02    5.36       1.3  T
   5    -24.1347752 -0.695280E-06  0.928E-03    5.36       2.2  T
   6    -24.1347753 -0.626029E-07  0.302E-03    5.36       6.9  T
   7    -24.1347753 -0.343456E-07  0.778E-04    5.36      26.8  T
   8    -24.1347753 -0.585185E-09  0.315E-04    5.36      66.3  T
     SCC iter.                  ...        0 min,  0.013 sec
     gradient                   ...        0 min,  0.005 sec
 * total energy  :   -23.8120224 Eh     change       -0.5841113E-02 Eh
   gradient norm :     0.0862244 Eh/α   predicted    -0.5683951E-02 (  -2.69%)
   displ. norm   :     0.4598474 α      lambda       -0.7961208E-02
   maximum displ.:     0.1371500 α      in ANC's #20, #13, #63, ...

........................................................................
.............................. CYCLE   11 ..............................
........................................................................
   1    -24.1431146 -0.241431E+02  0.306E-01    8.67       0.0  T
   2    -24.1437289 -0.614266E-03  0.215E-01    8.50       1.0  T
   3    -24.1437930 -0.641531E-04  0.111E-01    8.54       1.0  T
   4    -24.1438054 -0.123856E-04  0.125E-02    8.51       1.7  T
   5    -24.1438056 -0.215498E-06  0.672E-03    8.51       3.1  T
   6    -24.1438057 -0.134631E-07  0.963E-04    8.51      21.6  T
   7    -24.1438057 -0.136470E-08  0.352E-04    8.51      59.3  T
     SCC iter.                  ...        0 min,  0.012 sec
     gradient                   ...        0 min,  0.004 sec
 * total energy  :   -23.8130733 Eh     change       -0.1050955E-02 Eh
   gradient norm :     0.0911966 Eh/α   predicted    -0.4822361E-02 ( 358.86%)
   displ. norm   :     0.2400902 α      lambda       -0.1079586E-01
   maximum displ.:     0.0936928 α      in ANC's #20, #3, #13, ...

........................................................................
.............................. CYCLE   12 ..............................
........................................................................
   1    -24.1523862 -0.241524E+02  0.169E-01    7.37       0.0  T
   2    -24.1525194 -0.133164E-03  0.110E-01    7.44       1.0  T
   3    -24.1525236 -0.422172E-05  0.481E-02    7.42       1.0  T
   4    -24.1525263 -0.270121E-05  0.103E-02    7.44       2.0  T
   5    -24.1525273 -0.998340E-06  0.347E-03    7.43       6.0  T
   6    -24.1525273 -0.344854E-08  0.115E-03    7.43      18.2  T
   7    -24.1525273 -0.118266E-08  0.165E-04    7.43     126.7  T
   8    -24.1525273 -0.171667E-10  0.687E-05    7.43     303.5  T
     SCC iter.                  ...        0 min,  0.013 sec
     gradient                   ...        0 min,  0.005 sec
 * total energy  :   -23.8201632 Eh     change       -0.7089857E-02 Eh
   gradient norm :     0.0701617 Eh/α   predicted    -0.5709085E-02 ( -19.48%)
   displ. norm   :     0.3007062 α      lambda       -0.8426215E-02
   maximum displ.:     0.1987324 α      in ANC's #3, #13, #20, ...

........................................................................
.............................. CYCLE   13 ..............................
........................................................................
   1    -24.1655764 -0.241656E+02  0.177E-01    7.73       0.0  T
   2    -24.1656950 -0.118621E-03  0.933E-02    7.74       1.0  T
   3    -24.1656976 -0.253362E-05  0.406E-02    7.75       1.0  T
   4    -24.1656991 -0.150933E-05  0.735E-03    7.75       2.8  T
   5    -24.1656996 -0.541840E-06  0.245E-03    7.75       8.5  T
   6    -24.1656996 -0.545276E-08  0.103E-03    7.75      20.3  T
   7    -24.1656996 -0.956454E-09  0.220E-04    7.75      94.7  T
   8    -24.1656996 -0.346290E-09  0.110E-04    7.75     188.9  T
     SCC iter.                  ...        0 min,  0.013 sec
     gradient                   ...        0 min,  0.004 sec
 * total energy  :   -23.8268097 Eh     change       -0.6646531E-02 Eh
   gradient norm :     0.0511344 Eh/α   predicted    -0.4594080E-02 ( -30.88%)
   displ. norm   :     0.3504141 α      lambda       -0.9336166E-02
   maximum displ.:     0.1444705 α      in ANC's #3, #20, #13, ...

........................................................................
.............................. CYCLE   14 ..............................
........................................................................
   1    -24.1815248 -0.241815E+02  0.243E-01    8.44       0.0  T
   2    -24.1817329 -0.208121E-03  0.127E-01    8.48       1.0  T
   3    -24.1817368 -0.386651E-05  0.533E-02    8.48       1.0  T
   4    -24.1817394 -0.263600E-05  0.944E-03    8.48       2.2  T
   5    -24.1817401 -0.684955E-06  0.288E-03    8.48       7.2  T
   6    -24.1817401 -0.583601E-08  0.125E-03    8.48      16.7  T
   7    -24.1817401 -0.131593E-08  0.275E-04    8.48      75.8  T
   8    -24.1817401 -0.541696E-09  0.138E-04    8.48     150.7  T
     SCC iter.                  ...        0 min,  0.013 sec
     gradient                   ...        0 min,  0.005 sec
 * total energy  :   -23.8333002 Eh     change       -0.6490434E-02 Eh
   gradient norm :     0.0298370 Eh/α   predicted    -0.5241291E-02 ( -19.25%)
   displ. norm   :     0.3849201 α      lambda       -0.4545847E-02
   maximum displ.:     0.2087262 α      in ANC's #13, #3, #20, ...

........................................................................
.............................. CYCLE   15 ..............................
........................................................................
   1    -24.1831404 -0.241831E+02  0.175E-01    8.86       0.0  T
   2    -24.1832980 -0.157647E-03  0.840E-02    8.95       1.0  T
   3    -24.1833005 -0.253331E-05  0.409E-02    8.94       1.0  T
   4    -24.1833013 -0.787211E-06  0.651E-03    8.94       3.2  T
   5    -24.1833017 -0.361427E-06  0.233E-03    8.94       9.0  T
   6    -24.1833017 -0.360606E-08  0.903E-04    8.94      23.1  T
   7    -24.1833017 -0.705402E-09  0.151E-04    8.94     138.1  T
     SCC iter.                  ...        0 min,  0.012 sec
     gradient                   ...        0 min,  0.005 sec
 * total energy  :   -23.8365612 Eh     change       -0.3261061E-02 Eh
   gradient norm :     0.0215881 Eh/α   predicted    -0.2609701E-02 ( -19.97%)
   displ. norm   :     0.3425437 α      lambda       -0.3207591E-02
   maximum displ.:     0.1654779 α      in ANC's #13, #12, #20, ...

........................................................................
.............................. CYCLE   16 ..............................
........................................................................
   1    -24.1909298 -0.241909E+02  0.146E-01    8.93       0.0  T
   2    -24.1910368 -0.107029E-03  0.768E-02    9.01       1.0  T
   3    -24.1910390 -0.219229E-05  0.344E-02    9.01       1.0  T
   4    -24.1910393 -0.313562E-06  0.502E-03    9.01       4.2  T
   5    -24.1910395 -0.178342E-06  0.220E-03    9.01       9.5  T
   6    -24.1910395 -0.365254E-08  0.830E-04    9.01      25.1  T
   7    -24.1910395 -0.532818E-09  0.139E-04    9.01     149.8  T
     SCC iter.                  ...        0 min,  0.012 sec
     gradient                   ...        0 min,  0.005 sec
 * total energy  :   -23.8387072 Eh     change       -0.2145939E-02 Eh
   gradient norm :     0.0176334 Eh/α   predicted    -0.1791980E-02 ( -16.49%)
   displ. norm   :     0.5865072 α      lambda       -0.2526212E-02
   maximum displ.:     0.3134873 α      in ANC's #3, #4, #13, ...

........................................................................
.............................. CYCLE   17 ..............................
........................................................................
   1    -24.1858316 -0.241858E+02  0.117E-01    9.01       0.0  T
   2    -24.1858757 -0.440641E-04  0.667E-02    9.07       1.0  T
   3    -24.1858771 -0.143470E-05  0.242E-02    9.08       1.0  T
   4    -24.1858774 -0.270942E-06  0.371E-03    9.08       5.6  T
   5    -24.1858775 -0.551997E-07  0.196E-03    9.08      10.6  T
   6    -24.1858775 -0.323355E-08  0.518E-04    9.08      40.3  T
   7    -24.1858775 -0.344048E-09  0.137E-04    9.08     152.3  T
     SCC iter.                  ...        0 min,  0.012 sec
     gradient                   ...        0 min,  0.005 sec
 * total energy  :   -23.8404132 Eh     change       -0.1706075E-02 Eh
   gradient norm :     0.0149315 Eh/α   predicted    -0.1697635E-02 (  -0.49%)
   displ. norm   :     0.4167805 α      lambda       -0.1538877E-02
   maximum displ.:     0.2252771 α      in ANC's #4, #13, #3, ...

........................................................................
.............................. CYCLE   18 ..............................
........................................................................
   1    -24.1899598 -0.241900E+02  0.699E-02    9.05       0.0  T
   2    -24.1899680 -0.823253E-05  0.423E-02    9.07       1.0  T
   3    -24.1899685 -0.496013E-06  0.104E-02    9.08       2.0  T
   4    -24.1899686 -0.133280E-06  0.231E-03    9.07       9.0  T
   5    -24.1899686 -0.209943E-07  0.118E-03    9.07      17.7  T
   6    -24.1899686 -0.802213E-09  0.282E-04    9.07      74.0  T
   7    -24.1899686 -0.266116E-09  0.787E-05    9.07     264.9  T
     SCC iter.                  ...        0 min,  0.012 sec
     gradient                   ...        0 min,  0.005 sec
 * total energy  :   -23.8415477 Eh     change       -0.1134447E-02 Eh
   gradient norm :     0.0127143 Eh/α   predicted    -0.9030948E-03 ( -20.39%)
   displ. norm   :     0.4883410 α      lambda       -0.1120945E-02
   maximum displ.:     0.2697402 α      in ANC's #4, #13, #3, ...

........................................................................
.............................. CYCLE   19 ..............................
........................................................................
   1    -24.1895204 -0.241895E+02  0.723E-02    8.97       0.0  T
   2    -24.1895242 -0.380791E-05  0.431E-02    8.98       1.0  T
   3    -24.1895244 -0.187619E-06  0.748E-03    8.98       2.8  T
   4    -24.1895247 -0.307082E-06  0.235E-03    8.98       8.9  T
   5    -24.1895247 -0.140411E-07  0.107E-03    8.98      19.5  T
   6    -24.1895247 -0.878472E-09  0.279E-04    8.98      74.9  T
   7    -24.1895247 -0.302055E-09  0.101E-04    8.98     207.1  T
     SCC iter.                  ...        0 min,  0.012 sec
     gradient                   ...        0 min,  0.004 sec
 * total energy  :   -23.8423339 Eh     change       -0.7861807E-03 Eh
   gradient norm :     0.0094200 Eh/α   predicted    -0.6941336E-03 ( -11.71%)
   displ. norm   :     0.4357115 α      lambda       -0.7258346E-03
   maximum displ.:     0.2835291 α      in ANC's #4, #13, #3, ...

........................................................................
.............................. CYCLE   20 ..............................
........................................................................
   1    -24.1925237 -0.241925E+02  0.666E-02    9.05       0.0  T
   2    -24.1925253 -0.167506E-05  0.386E-02    9.04       1.0  T
   3    -24.1925255 -0.201860E-06  0.420E-03    9.04       5.0  T
   4    -24.1925256 -0.959216E-07  0.172E-03    9.04      12.1  T
   5    -24.1925256 -0.304956E-08  0.784E-04    9.04      26.6  T
   6    -24.1925256 -0.389633E-09  0.140E-04    9.04     149.0  T
     SCC iter.                  ...        0 min,  0.010 sec
     gradient                   ...        0 min,  0.004 sec
 * total energy  :   -23.8427758 Eh     change       -0.4419083E-03 Eh
   gradient norm :     0.0080439 Eh/α   predicted    -0.4318169E-03 (  -2.28%)
   displ. norm   :     0.3550448 α      lambda       -0.3529686E-03
   maximum displ.:     0.2001103 α      in ANC's #4, #13, #3, ...
 * RMSD in coord.:     1.4566569 α      energy gain  -0.1648039E+00 Eh

generating ANC from model Hessian ...
Using Lindh-Hessian (1995)
 Shifting diagonal of input Hessian by   9.843609876756030E-003
 Lowest  eigenvalues of input Hessian
    0.000000    0.000000    0.000000    0.000000    0.000000    0.000000
    0.010000    0.010186    0.010246    0.010420    0.010573    0.011196
    0.017577    0.019152    0.019777    0.020926    0.021907    0.024385
 Highest eigenvalues
    1.193195    1.240830    1.346716    1.372190    1.464911    1.466323
 

........................................................................
.............................. CYCLE   21 ..............................
........................................................................
   1    -24.1913751 -0.241914E+02  0.489E-02    9.05       0.0  T
   2    -24.1913761 -0.992379E-06  0.284E-02    9.05       1.0  T
   3    -24.1913762 -0.144670E-06  0.318E-03    9.05       6.6  T
   4    -24.1913762 -0.331942E-07  0.128E-03    9.05      16.2  T
   5    -24.1913762 -0.100933E-08  0.469E-04    9.05      44.4  T
   6    -24.1913762 -0.313186E-09  0.987E-05    9.05     211.2  T
     SCC iter.                  ...        0 min,  0.010 sec
     gradient                   ...        0 min,  0.004 sec
 * total energy  :   -23.8430197 Eh     change       -0.2439331E-03 Eh
   gradient norm :     0.0049975 Eh/α   predicted     0.0000000E+00 (-100.00%)
   displ. norm   :     0.0991706 α      lambda       -0.2402649E-03
   maximum displ.:     0.0435570 α      in ANC's #13, #11, #5, ...

........................................................................
.............................. CYCLE   22 ..............................
........................................................................
   1    -24.1921800 -0.241922E+02  0.297E-02    9.06       0.0  T
   2    -24.1921801 -0.147175E-06  0.175E-02    9.06       1.2  T
   3    -24.1921802 -0.620949E-07  0.125E-03    9.06      16.7  T
   4    -24.1921802 -0.103673E-08  0.489E-04    9.06      42.7  T
   5    -24.1921802 -0.150500E-09  0.101E-04    9.06     206.5  T
     SCC iter.                  ...        0 min,  0.009 sec
     gradient                   ...        0 min,  0.005 sec
 * total energy  :   -23.8432214 Eh     change       -0.2016424E-03 Eh
   gradient norm :     0.0023912 Eh/α   predicted    -0.1217420E-03 ( -39.62%)
   displ. norm   :     0.2777574 α      lambda       -0.4428781E-03
   maximum displ.:     0.1268887 α      in ANC's #5, #4, #13, ...

........................................................................
.............................. CYCLE   23 ..............................
........................................................................
   1    -24.1920472 -0.241920E+02  0.767E-02    9.07       0.0  T
   2    -24.1920481 -0.936742E-06  0.453E-02    9.08       1.0  T
   3    -24.1920485 -0.415394E-06  0.335E-03    9.08       6.2  T
   4    -24.1920486 -0.108659E-07  0.164E-03    9.08      12.7  T
   5    -24.1920486 -0.494596E-08  0.301E-04    9.08      69.3  T
   6    -24.1920486 -0.259107E-09  0.164E-04    9.08     127.2  T
     SCC iter.                  ...        0 min,  0.010 sec
     gradient                   ...        0 min,  0.004 sec
 * total energy  :   -23.8434957 Eh     change       -0.2742941E-03 Eh
   gradient norm :     0.0046387 Eh/α   predicted    -0.2385394E-03 ( -13.04%)
   displ. norm   :     0.1553280 α      lambda       -0.1211541E-03
   maximum displ.:     0.0833519 α      in ANC's #5, #4, #1, ...

........................................................................
.............................. CYCLE   24 ..............................
........................................................................
   1    -24.1919356 -0.241919E+02  0.349E-02    9.10       0.0  T
   2    -24.1919358 -0.230528E-06  0.206E-02    9.10       1.0  T
   3    -24.1919359 -0.920061E-07  0.169E-03    9.10      12.3  T
   4    -24.1919359 -0.572211E-08  0.920E-04    9.10      22.7  T
   5    -24.1919359 -0.112150E-08  0.176E-04    9.10     118.3  T
     SCC iter.                  ...        0 min,  0.008 sec
     gradient                   ...        0 min,  0.004 sec
 * total energy  :   -23.8435946 Eh     change       -0.9895037E-04 Eh
   gradient norm :     0.0045362 Eh/α   predicted    -0.6204005E-04 ( -37.30%)
   displ. norm   :     0.2368669 α      lambda       -0.1896216E-03
   maximum displ.:     0.1322115 α      in ANC's #5, #4, #1, ...

........................................................................
.............................. CYCLE   25 ..............................
........................................................................
   1    -24.1921408 -0.241921E+02  0.444E-02    9.13       0.0  T
   2    -24.1921413 -0.489483E-06  0.260E-02    9.13       1.0  T
   3    -24.1921414 -0.181013E-06  0.230E-03    9.14       9.1  T
   4    -24.1921415 -0.569659E-08  0.117E-03    9.14      17.9  T
   5    -24.1921415 -0.127571E-08  0.302E-04    9.14      69.0  T
   6    -24.1921415 -0.302386E-09  0.112E-04    9.14     185.4  T
     SCC iter.                  ...        0 min,  0.011 sec
     gradient                   ...        0 min,  0.004 sec
 * total energy  :   -23.8437418 Eh     change       -0.1471879E-03 Eh
   gradient norm :     0.0021454 Eh/α   predicted    -0.1001327E-03 ( -31.97%)
   displ. norm   :     0.2645969 α      lambda       -0.1449554E-03
   maximum displ.:     0.1517278 α      in ANC's #5, #4, #1, ...

........................................................................
.............................. CYCLE   26 ..............................
........................................................................
   1    -24.1920489 -0.241920E+02  0.417E-02    9.15       0.0  T
   2    -24.1920495 -0.543190E-06  0.244E-02    9.15       1.0  T
   3    -24.1920497 -0.169900E-06  0.230E-03    9.15       9.1  T
   4    -24.1920497 -0.848990E-08  0.121E-03    9.15      17.3  T
   5    -24.1920497 -0.136943E-08  0.346E-04    9.15      60.3  T
   6    -24.1920497 -0.320377E-09  0.112E-04    9.15     185.8  T
     SCC iter.                  ...        0 min,  0.010 sec
     gradient                   ...        0 min,  0.004 sec
 * total energy  :   -23.8438526 Eh     change       -0.1108525E-03 Eh
   gradient norm :     0.0028288 Eh/α   predicted    -0.7755291E-04 ( -30.04%)
   displ. norm   :     0.2593760 α      lambda       -0.1058707E-03
   maximum displ.:     0.1527366 α      in ANC's #5, #4, #1, ...

........................................................................
.............................. CYCLE   27 ..............................
........................................................................
   1    -24.1921029 -0.241921E+02  0.348E-02    9.16       0.0  T
   2    -24.1921034 -0.485745E-06  0.202E-02    9.16       1.0  T
   3    -24.1921035 -0.114237E-06  0.219E-03    9.16       9.5  T
   4    -24.1921035 -0.175200E-07  0.110E-03    9.16      18.9  T
   5    -24.1921035 -0.151318E-08  0.380E-04    9.16      54.9  T
   6    -24.1921035 -0.253376E-09  0.101E-04    9.16     207.3  T
     SCC iter.                  ...        0 min,  0.010 sec
     gradient                   ...        0 min,  0.004 sec
 * total energy  :   -23.8439424 Eh     change       -0.8972247E-04 Eh
   gradient norm :     0.0034162 Eh/α   predicted    -0.5649953E-04 ( -37.03%)
   displ. norm   :     0.3234580 α      lambda       -0.1217731E-03
   maximum displ.:     0.1914838 α      in ANC's #5, #4, #1, ...

........................................................................
.............................. CYCLE   28 ..............................
........................................................................
   1    -24.1920657 -0.241921E+02  0.412E-02    9.17       0.0  T
   2    -24.1920665 -0.741465E-06  0.239E-02    9.17       1.0  T
   3    -24.1920666 -0.139473E-06  0.277E-03    9.17       7.5  T
   4    -24.1920666 -0.380274E-07  0.130E-03    9.17      16.1  T
   5    -24.1920666 -0.225013E-08  0.468E-04    9.17      44.5  T
   6    -24.1920666 -0.311164E-09  0.116E-04    9.17     179.2  T
     SCC iter.                  ...        0 min,  0.010 sec
     gradient                   ...        0 min,  0.004 sec
 * total energy  :   -23.8440530 Eh     change       -0.1106456E-03 Eh
   gradient norm :     0.0032385 Eh/α   predicted    -0.6725825E-04 ( -39.21%)
   displ. norm   :     0.4679703 α      lambda       -0.1773179E-03
   maximum displ.:     0.2759498 α      in ANC's #5, #4, #1, ...

........................................................................
.............................. CYCLE   29 ..............................
........................................................................
   1    -24.1920236 -0.241920E+02  0.584E-02    9.18       0.0  T
   2    -24.1920252 -0.151413E-05  0.337E-02    9.17       1.0  T
   3    -24.1920254 -0.258324E-06  0.391E-03    9.18       5.3  T
   4    -24.1920255 -0.779442E-07  0.175E-03    9.18      11.9  T
   5    -24.1920255 -0.421006E-08  0.661E-04    9.18      31.6  T
   6    -24.1920255 -0.548514E-09  0.153E-04    9.18     136.6  T
     SCC iter.                  ...        0 min,  0.010 sec
     gradient                   ...        0 min,  0.004 sec
 * total energy  :   -23.8442055 Eh     change       -0.1524611E-03 Eh
   gradient norm :     0.0030917 Eh/α   predicted    -0.1080789E-03 ( -29.11%)
   displ. norm   :     0.5133804 α      lambda       -0.1846659E-03
   maximum displ.:     0.3028930 α      in ANC's #5, #4, #1, ...

........................................................................
.............................. CYCLE   30 ..............................
........................................................................
   1    -24.1922979 -0.241923E+02  0.621E-02    9.19       0.0  T
   2    -24.1922995 -0.157850E-05  0.357E-02    9.19       1.0  T
   3    -24.1922998 -0.261609E-06  0.395E-03    9.19       5.3  T
   4    -24.1922999 -0.835957E-07  0.173E-03    9.19      12.1  T
   5    -24.1922999 -0.429987E-08  0.663E-04    9.19      31.5  T
   6    -24.1922999 -0.508436E-09  0.143E-04    9.19     146.1  T
     SCC iter.                  ...        0 min,  0.010 sec
     gradient                   ...        0 min,  0.004 sec
 * total energy  :   -23.8443594 Eh     change       -0.1539087E-03 Eh
   gradient norm :     0.0035980 Eh/α   predicted    -0.1166685E-03 ( -24.20%)
   displ. norm   :     0.4782204 α      lambda       -0.1541222E-03
   maximum displ.:     0.2818283 α      in ANC's #5, #4, #1, ...

........................................................................
.............................. CYCLE   31 ..............................
........................................................................
   1    -24.1922422 -0.241922E+02  0.561E-02    9.18       0.0  T
   2    -24.1922432 -0.102268E-05  0.324E-02    9.18       1.0  T
   3    -24.1922434 -0.200679E-06  0.304E-03    9.18       6.9  T
   4    -24.1922434 -0.519999E-07  0.144E-03    9.18      14.5  T
   5    -24.1922434 -0.259354E-08  0.513E-04    9.18      40.7  T
   6    -24.1922434 -0.341437E-09  0.975E-05    9.18     213.8  T
     SCC iter.                  ...        0 min,  0.010 sec
     gradient                   ...        0 min,  0.004 sec
 * total energy  :   -23.8444789 Eh     change       -0.1195530E-03 Eh
   gradient norm :     0.0030044 Eh/α   predicted    -0.9468465E-04 ( -20.80%)
   displ. norm   :     0.4381457 α      lambda       -0.1573727E-03
   maximum displ.:     0.2581584 α      in ANC's #5, #4, #1, ...

........................................................................
.............................. CYCLE   32 ..............................
........................................................................
   1    -24.1946032 -0.241946E+02  0.534E-02    9.24       0.0  T
   2    -24.1946040 -0.871431E-06  0.306E-02    9.24       1.0  T
   3    -24.1946042 -0.132106E-06  0.322E-03    9.25       6.5  T
   4    -24.1946042 -0.677742E-07  0.136E-03    9.24      15.4  T
   5    -24.1946042 -0.283231E-08  0.510E-04    9.24      40.9  T
   6    -24.1946042 -0.253777E-09  0.862E-05    9.24     242.0  T
     SCC iter.                  ...        0 min,  0.010 sec
     gradient                   ...        0 min,  0.004 sec
 * total energy  :   -23.8445965 Eh     change       -0.1175558E-03 Eh
   gradient norm :     0.0067306 Eh/α   predicted    -0.9379243E-04 ( -20.21%)
   displ. norm   :     0.7299103 α      lambda       -0.2602913E-03
   maximum displ.:     0.4235660 α      in ANC's #5, #4, #1, ...

........................................................................
.............................. CYCLE   33 ..............................
........................................................................
   1    -24.1934995 -0.241935E+02  0.880E-02    9.19       0.0  T
   2    -24.1935015 -0.200778E-05  0.509E-02    9.19       1.0  T
   3    -24.1935020 -0.466152E-06  0.393E-03    9.20       5.3  T
   4    -24.1935021 -0.525141E-07  0.198E-03    9.20      10.5  T
   5    -24.1935021 -0.416468E-08  0.719E-04    9.20      29.0  T
   6    -24.1935021 -0.112986E-08  0.985E-05    9.20     211.7  T
     SCC iter.                  ...        0 min,  0.010 sec
     gradient                   ...        0 min,  0.004 sec
 * total energy  :   -23.8448486 Eh     change       -0.2520747E-03 Eh
   gradient norm :     0.0046109 Eh/α   predicted    -0.1994843E-03 ( -20.86%)
   displ. norm   :     0.7944291 α      lambda       -0.3232987E-03
   maximum displ.:     0.4565905 α      in ANC's #5, #4, #1, ...

........................................................................
.............................. CYCLE   34 ..............................
........................................................................
   1    -24.1910066 -0.241910E+02  0.930E-02    9.12       0.0  T
   2    -24.1910084 -0.174578E-05  0.540E-02    9.12       1.0  T
   3    -24.1910089 -0.529877E-06  0.372E-03    9.13       5.6  T
   4    -24.1910089 -0.144863E-07  0.197E-03    9.13      10.6  T
   5    -24.1910089 -0.184574E-08  0.512E-04    9.13      40.7  T
   6    -24.1910089 -0.164972E-08  0.117E-04    9.13     178.4  T
     SCC iter.                  ...        0 min,  0.010 sec
     gradient                   ...        0 min,  0.004 sec
 * total energy  :   -23.8451147 Eh     change       -0.2661351E-03 Eh
   gradient norm :     0.0056169 Eh/α   predicted    -0.2636751E-03 (  -0.92%)
   displ. norm   :     0.5334647 α      lambda       -0.2223667E-03
   maximum displ.:     0.3103014 α      in ANC's #5, #4, #1, ...

........................................................................
.............................. CYCLE   35 ..............................
........................................................................
   1    -24.1906282 -0.241906E+02  0.611E-02    9.14       0.0  T
   2    -24.1906288 -0.532632E-06  0.357E-02    9.14       1.0  T
   3    -24.1906290 -0.202683E-06  0.257E-03    9.14       8.1  T
   4    -24.1906290 -0.975583E-08  0.129E-03    9.14      16.2  T
   5    -24.1906290 -0.271670E-08  0.288E-04    9.14      72.4  T
   6    -24.1906290 -0.223075E-09  0.100E-04    9.14     207.6  T
     SCC iter.                  ...        0 min,  0.010 sec
     gradient                   ...        0 min,  0.004 sec
 * total energy  :   -23.8452608 Eh     change       -0.1461510E-03 Eh
   gradient norm :     0.0086786 Eh/α   predicted    -0.1428277E-03 (  -2.27%)
   displ. norm   :     0.5299811 α      lambda       -0.1781389E-03
   maximum displ.:     0.3184065 α      in ANC's #5, #4, #1, ...

........................................................................
.............................. CYCLE   36 ..............................
........................................................................
   1    -24.1887190 -0.241887E+02  0.636E-02    9.10       0.0  T
   2    -24.1887207 -0.162977E-05  0.365E-02    9.11       1.0  T
   3    -24.1887210 -0.307951E-06  0.343E-03    9.11       6.1  T
   4    -24.1887210 -0.328330E-08  0.166E-03    9.11      12.6  T
   5    -24.1887210 -0.296520E-09  0.224E-04    9.11      92.9  T
   6    -24.1887210 -0.365006E-09  0.764E-05    9.11     272.8  T
     SCC iter.                  ...        0 min,  0.010 sec
     gradient                   ...        0 min,  0.004 sec
 * total energy  :   -23.8453455 Eh     change       -0.8465306E-04 Eh
   gradient norm :     0.0083675 Eh/α   predicted    -0.1140955E-03 (  34.78%)
   displ. norm   :     0.2705037 α      lambda       -0.4953459E-03
   maximum displ.:     0.1436896 α      in ANC's #5, #1, #4, ...

........................................................................
.............................. CYCLE   37 ..............................
........................................................................
   1    -24.1975142 -0.241975E+02  0.695E-02    9.48       0.0  T
   2    -24.1975183 -0.411344E-05  0.413E-02    9.48       1.0  T
   3    -24.1975187 -0.377142E-06  0.577E-03    9.47       3.6  T
   4    -24.1975187 -0.293811E-07  0.191E-03    9.47      10.9  T
   5    -24.1975187 -0.159861E-08  0.801E-04    9.47      26.0  T
   6    -24.1975187 -0.178557E-08  0.103E-04    9.47     202.1  T
     SCC iter.                  ...        0 min,  0.010 sec
     gradient                   ...        0 min,  0.004 sec
 * total energy  :   -23.8453164 Eh     change        0.2914572E-04 Eh
   gradient norm :     0.0120068 Eh/α   predicted    -0.2657966E-03 (*******%)
   displ. norm   :     0.2634657 α      lambda       -0.4176185E-03
   maximum displ.:     0.1496354 α      in ANC's #4, #5, #1, ...

........................................................................
.............................. CYCLE   38 ..............................
........................................................................
   1    -24.1935044 -0.241935E+02  0.496E-02    9.25       0.0  T
   2    -24.1935056 -0.122237E-05  0.294E-02    9.25       1.0  T
   3    -24.1935058 -0.199357E-06  0.274E-03    9.26       7.6  T
   4    -24.1935058 -0.729756E-08  0.126E-03    9.26      16.6  T
   5    -24.1935058 -0.535284E-09  0.349E-04    9.26      59.7  T
   6    -24.1935058 -0.367745E-09  0.870E-05    9.26     239.8  T
     SCC iter.                  ...        0 min,  0.010 sec
     gradient                   ...        0 min,  0.004 sec
 * total energy  :   -23.8455593 Eh     change       -0.2428961E-03 Eh
   gradient norm :     0.0031577 Eh/α   predicted    -0.2233115E-03 (  -8.06%)
   displ. norm   :     0.4832784 α      lambda       -0.1251974E-03
   maximum displ.:     0.3054836 α      in ANC's #5, #4, #1, ...

........................................................................
.............................. CYCLE   39 ..............................
........................................................................
   1    -24.1914834 -0.241915E+02  0.473E-02    9.21       0.0  T
   2    -24.1914844 -0.977363E-06  0.273E-02    9.22       1.0  T
   3    -24.1914846 -0.143462E-06  0.259E-03    9.22       8.1  T
   4    -24.1914846 -0.314341E-08  0.112E-03    9.22      18.7  T
   5    -24.1914846 -0.111186E-09  0.244E-04    9.22      85.3  T
   6    -24.1914846 -0.384919E-09  0.566E-05    9.22     368.5  T
     SCC iter.                  ...        0 min,  0.010 sec
     gradient                   ...        0 min,  0.004 sec
 * total energy  :   -23.8456538 Eh     change       -0.9453343E-04 Eh
   gradient norm :     0.0045681 Eh/α   predicted    -0.7722214E-04 ( -18.31%)
   displ. norm   :     0.4659244 α      lambda       -0.1248191E-03
   maximum displ.:     0.3035356 α      in ANC's #5, #4, #1, ...

........................................................................
.............................. CYCLE   40 ..............................
........................................................................
   1    -24.1918761 -0.241919E+02  0.413E-02    9.21       0.0  T
   2    -24.1918766 -0.466954E-06  0.239E-02    9.21       1.0  T
   3    -24.1918767 -0.958043E-07  0.212E-03    9.21       9.8  T
   4    -24.1918767 -0.202646E-07  0.102E-03    9.21      20.5  T
   5    -24.1918767 -0.106925E-08  0.343E-04    9.21      60.7  T
   6    -24.1918767 -0.312095E-09  0.712E-05    9.21     292.9  T
     SCC iter.                  ...        0 min,  0.010 sec
     gradient                   ...        0 min,  0.004 sec
 * total energy  :   -23.8457555 Eh     change       -0.1016723E-03 Eh
   gradient norm :     0.0039815 Eh/α   predicted    -0.7596172E-04 ( -25.29%)
   displ. norm   :     0.5699095 α      lambda       -0.1702059E-03
   maximum displ.:     0.3802723 α      in ANC's #5, #4, #1, ...

........................................................................
.............................. CYCLE   41 ..............................
........................................................................
   1    -24.1937670 -0.241938E+02  0.473E-02    9.26       0.0  T
   2    -24.1937677 -0.675706E-06  0.272E-02    9.26       1.0  T
   3    -24.1937678 -0.111543E-06  0.281E-03    9.26       7.4  T
   4    -24.1937678 -0.525492E-07  0.127E-03    9.26      16.4  T
   5    -24.1937678 -0.232862E-08  0.445E-04    9.26      46.9  T
   6    -24.1937678 -0.243364E-09  0.902E-05    9.26     231.1  T
     SCC iter.                  ...        0 min,  0.013 sec
     gradient                   ...        0 min,  0.005 sec
 * total energy  :   -23.8458831 Eh     change       -0.1276912E-03 Eh
   gradient norm :     0.0028830 Eh/α   predicted    -0.1127448E-03 ( -11.71%)
   displ. norm   :     0.7749952 α      lambda       -0.1598163E-03
   maximum displ.:     0.5133022 α      in ANC's #5, #4, #1, ...

........................................................................
.............................. CYCLE   42 ..............................
........................................................................
   1    -24.1939977 -0.241940E+02  0.591E-02    9.29       0.0  T
   2    -24.1939984 -0.698925E-06  0.342E-02    9.29       1.0  T
   3    -24.1939986 -0.184066E-06  0.261E-03    9.29       8.0  T
   4    -24.1939986 -0.269783E-07  0.137E-03    9.29      15.3  T
   5    -24.1939986 -0.181717E-08  0.364E-04    9.29      57.2  T
   6    -24.1939986 -0.382851E-09  0.629E-05    9.29     331.3  T
     SCC iter.                  ...        0 min,  0.011 sec
     gradient                   ...        0 min,  0.004 sec
 * total energy  :   -23.8460298 Eh     change       -0.1466135E-03 Eh
   gradient norm :     0.0022697 Eh/α   predicted    -0.1279058E-03 ( -12.76%)
   displ. norm   :     0.7510901 α      lambda       -0.1428029E-03
   maximum displ.:     0.4981122 α      in ANC's #5, #4, #1, ...
 * RMSD in coord.:     1.9360636 α      energy gain  -0.3253982E-02 Eh

generating ANC from model Hessian ...
Using Lindh-Hessian (1995)
 Shifting diagonal of input Hessian by   9.973159993932952E-003
 Lowest  eigenvalues of input Hessian
    0.000000    0.000000    0.000000    0.000000    0.000000    0.000000
    0.010000    0.010189    0.010314    0.010345    0.010413    0.011061
    0.017596    0.019291    0.019879    0.020494    0.021912    0.023856
 Highest eigenvalues
    1.193749    1.242005    1.336917    1.363236    1.447152    1.454951
 

........................................................................
.............................. CYCLE   43 ..............................
........................................................................
   1    -24.1937659 -0.241938E+02  0.543E-02    9.28       0.0  T
   2    -24.1937665 -0.591934E-06  0.314E-02    9.29       1.0  T
   3    -24.1937667 -0.171760E-06  0.232E-03    9.29       9.0  T
   4    -24.1937667 -0.113191E-07  0.118E-03    9.29      17.7  T
   5    -24.1937667 -0.155088E-08  0.342E-04    9.29      61.0  T
   6    -24.1937667 -0.414424E-09  0.589E-05    9.29     353.9  T
     SCC iter.                  ...        0 min,  0.011 sec
     gradient                   ...        0 min,  0.004 sec
 * total energy  :   -23.8461687 Eh     change       -0.1389830E-03 Eh
   gradient norm :     0.0020055 Eh/α   predicted     0.0000000E+00 (-100.00%)
   displ. norm   :     0.0314327 α      lambda       -0.2477458E-04
   maximum displ.:     0.0198711 α      in ANC's #1, #9, #3, ...

........................................................................
.............................. CYCLE   44 ..............................
........................................................................
   1    -24.1942896 -0.241943E+02  0.932E-03    9.30       0.0  T
   2    -24.1942896 -0.327392E-07  0.540E-03    9.30       3.9  T
   3    -24.1942896 -0.520822E-08  0.520E-04    9.30      40.1  T
   4    -24.1942896 -0.405770E-09  0.228E-04    9.30      91.6  T
     SCC iter.                  ...        0 min,  0.008 sec
     gradient                   ...        0 min,  0.004 sec
 * total energy  :   -23.8461887 Eh     change       -0.1993236E-04 Eh
   gradient norm :     0.0007175 Eh/α   predicted    -0.1247410E-04 ( -37.42%)
   displ. norm   :     0.1203241 α      lambda       -0.3569551E-04
   maximum displ.:     0.0767924 α      in ANC's #1, #9, #3, ...

........................................................................
.............................. CYCLE   45 ..............................
........................................................................
   1    -24.1949649 -0.241950E+02  0.271E-02    9.32       0.0  T
   2    -24.1949650 -0.135371E-06  0.159E-02    9.32       1.3  T
   3    -24.1949650 -0.278485E-07  0.104E-03    9.32      20.1  T
   4    -24.1949650 -0.191196E-08  0.510E-04    9.32      40.9  T
   5    -24.1949650 -0.907505E-10  0.142E-04    9.32     146.9  T
     SCC iter.                  ...        0 min,  0.009 sec
     gradient                   ...        0 min,  0.004 sec
 * total energy  :   -23.8462187 Eh     change       -0.2997797E-04 Eh
   gradient norm :     0.0020082 Eh/α   predicted    -0.1796365E-04 ( -40.08%)
   displ. norm   :     0.0545760 α      lambda       -0.1702270E-04
   maximum displ.:     0.0367579 α      in ANC's #1, #9, #3, ...

........................................................................
.............................. CYCLE   46 ..............................
........................................................................
   1    -24.1948036 -0.241948E+02  0.109E-02    9.32       0.0  T
   2    -24.1948036 -0.100320E-07  0.647E-03    9.32       3.2  T
   3    -24.1948036 -0.226126E-08  0.268E-04    9.32      77.9  T
   4    -24.1948036 -0.882991E-10  0.142E-04    9.32     147.3  T
     SCC iter.                  ...        0 min,  0.008 sec
     gradient                   ...        0 min,  0.004 sec
 * total energy  :   -23.8462349 Eh     change       -0.1619750E-04 Eh
   gradient norm :     0.0016467 Eh/α   predicted    -0.8537554E-05 ( -47.29%)
   displ. norm   :     0.2557083 α      lambda       -0.5601136E-04
   maximum displ.:     0.1615119 α      in ANC's #1, #3, #9, ...

........................................................................
.............................. CYCLE   47 ..............................
........................................................................
   1    -24.1936615 -0.241937E+02  0.523E-02    9.32       0.0  T
   2    -24.1936618 -0.338588E-06  0.309E-02    9.32       1.0  T
   3    -24.1936619 -0.609440E-07  0.147E-03    9.32      14.1  T
   4    -24.1936619 -0.163529E-08  0.747E-04    9.32      27.9  T
   5    -24.1936619 -0.101572E-09  0.159E-04    9.32     130.8  T
     SCC iter.                  ...        0 min,  0.009 sec
     gradient                   ...        0 min,  0.004 sec
 * total energy  :   -23.8462991 Eh     change       -0.6426354E-04 Eh
   gradient norm :     0.0015932 Eh/α   predicted    -0.2882660E-04 ( -55.14%)
   displ. norm   :     0.3055247 α      lambda       -0.4694251E-04
   maximum displ.:     0.1973453 α      in ANC's #1, #3, #4, ...

........................................................................
.............................. CYCLE   48 ..............................
........................................................................
   1    -24.1927912 -0.241928E+02  0.593E-02    9.31       0.0  T
   2    -24.1927915 -0.288714E-06  0.351E-02    9.32       1.0  T
   3    -24.1927916 -0.663900E-07  0.147E-03    9.32      14.1  T
   4    -24.1927916 -0.314626E-08  0.765E-04    9.32      27.2  T
   5    -24.1927916 -0.167798E-09  0.207E-04    9.32     100.8  T
     SCC iter.                  ...        0 min,  0.009 sec
     gradient                   ...        0 min,  0.004 sec
 * total energy  :   -23.8463573 Eh     change       -0.5817746E-04 Eh
   gradient norm :     0.0032595 Eh/α   predicted    -0.2445504E-04 ( -57.96%)
   displ. norm   :     0.2404469 α      lambda       -0.6552576E-04
   maximum displ.:     0.1589304 α      in ANC's #1, #3, #4, ...

........................................................................
.............................. CYCLE   49 ..............................
........................................................................
   1    -24.1926823 -0.241927E+02  0.446E-02    9.31       0.0  T
   2    -24.1926824 -0.118102E-06  0.264E-02    9.31       1.0  T
   3    -24.1926824 -0.369718E-07  0.108E-03    9.32      19.4  T
   4    -24.1926824 -0.242284E-08  0.533E-04    9.32      39.1  T
   5    -24.1926824 -0.211831E-09  0.162E-04    9.32     128.5  T
     SCC iter.                  ...        0 min,  0.009 sec
     gradient                   ...        0 min,  0.004 sec
 * total energy  :   -23.8464149 Eh     change       -0.5755818E-04 Eh
   gradient norm :     0.0036094 Eh/α   predicted    -0.3466630E-04 ( -39.77%)
   displ. norm   :     0.2546261 α      lambda       -0.8446064E-04
   maximum displ.:     0.1685392 α      in ANC's #1, #3, #4, ...

........................................................................
.............................. CYCLE   50 ..............................
........................................................................
   1    -24.1932441 -0.241932E+02  0.464E-02    9.31       0.0  T
   2    -24.1932442 -0.154030E-06  0.273E-02    9.31       1.0  T
   3    -24.1932443 -0.430015E-07  0.116E-03    9.31      18.0  T
   4    -24.1932443 -0.253552E-08  0.567E-04    9.31      36.8  T
   5    -24.1932443 -0.160650E-09  0.172E-04    9.31     121.1  T
     SCC iter.                  ...        0 min,  0.009 sec
     gradient                   ...        0 min,  0.004 sec
 * total energy  :   -23.8464906 Eh     change       -0.7572905E-04 Eh
   gradient norm :     0.0030897 Eh/α   predicted    -0.4496918E-04 ( -40.62%)
   displ. norm   :     0.3995753 α      lambda       -0.1355126E-03
   maximum displ.:     0.2618147 α      in ANC's #1, #3, #4, ...

........................................................................
.............................. CYCLE   51 ..............................
........................................................................
   1    -24.1936832 -0.241937E+02  0.720E-02    9.30       0.0  T
   2    -24.1936835 -0.270262E-06  0.425E-02    9.30       1.0  T
   3    -24.1936836 -0.921591E-07  0.165E-03    9.31      12.7  T
   4    -24.1936836 -0.485639E-08  0.804E-04    9.30      25.9  T
   5    -24.1936836 -0.525581E-09  0.234E-04    9.30      89.1  T
     SCC iter.                  ...        0 min,  0.009 sec
     gradient                   ...        0 min,  0.004 sec
 * total energy  :   -23.8466152 Eh     change       -0.1246183E-03 Eh
   gradient norm :     0.0029713 Eh/α   predicted    -0.7857634E-04 ( -36.95%)
   displ. norm   :     0.6209656 α      lambda       -0.2260044E-03
   maximum displ.:     0.4119104 α      in ANC's #1, #3, #4, ...

........................................................................
.............................. CYCLE   52 ..............................
........................................................................
   1    -24.1934668 -0.241935E+02  0.110E-01    9.28       0.0  T
   2    -24.1934675 -0.637311E-06  0.647E-02    9.28       1.0  T
   3    -24.1934677 -0.207378E-06  0.254E-03    9.29       8.2  T
   4    -24.1934677 -0.152904E-07  0.129E-03    9.29      16.2  T
   5    -24.1934677 -0.142433E-08  0.374E-04    9.29      55.8  T
   6    -24.1934677 -0.220336E-09  0.767E-05    9.29     271.8  T
     SCC iter.                  ...        0 min,  0.011 sec
     gradient                   ...        0 min,  0.004 sec
 * total energy  :   -23.8468099 Eh     change       -0.1947222E-03 Eh
   gradient norm :     0.0046764 Eh/α   predicted    -0.1565795E-03 ( -19.59%)
   displ. norm   :     0.4525977 α      lambda       -0.1930304E-03
   maximum displ.:     0.3164271 α      in ANC's #1, #4, #3, ...

........................................................................
.............................. CYCLE   53 ..............................
........................................................................
   1    -24.1956388 -0.241956E+02  0.759E-02    9.27       0.0  T
   2    -24.1956394 -0.557420E-06  0.446E-02    9.27       1.0  T
   3    -24.1956395 -0.113924E-06  0.200E-03    9.27      10.4  T
   4    -24.1956395 -0.943633E-08  0.101E-03    9.27      20.7  T
   5    -24.1956395 -0.492967E-09  0.369E-04    9.27      56.4  T
   6    -24.1956395 -0.283634E-09  0.749E-05    9.27     278.4  T
     SCC iter.                  ...        0 min,  0.010 sec
     gradient                   ...        0 min,  0.004 sec
 * total energy  :   -23.8469349 Eh     change       -0.1250008E-03 Eh
   gradient norm :     0.0047189 Eh/α   predicted    -0.1162878E-03 (  -6.97%)
   displ. norm   :     0.2520515 α      lambda       -0.7112981E-04
   maximum displ.:     0.1719706 α      in ANC's #1, #5, #4, ...

........................................................................
.............................. CYCLE   54 ..............................
........................................................................
   1    -24.1948560 -0.241949E+02  0.473E-02    9.28       0.0  T
   2    -24.1948563 -0.307726E-06  0.277E-02    9.28       1.0  T
   3    -24.1948563 -0.532342E-07  0.139E-03    9.28      15.0  T
   4    -24.1948563 -0.307279E-08  0.717E-04    9.28      29.1  T
   5    -24.1948563 -0.912195E-10  0.207E-04    9.28     100.9  T
     SCC iter.                  ...        0 min,  0.009 sec
     gradient                   ...        0 min,  0.004 sec
 * total energy  :   -23.8469844 Eh     change       -0.4952593E-04 Eh
   gradient norm :     0.0030051 Eh/α   predicted    -0.3782423E-04 ( -23.63%)
   displ. norm   :     0.1755716 α      lambda       -0.6800360E-04
   maximum displ.:     0.1188115 α      in ANC's #1, #5, #4, ...

........................................................................
.............................. CYCLE   55 ..............................
........................................................................
   1    -24.1967946 -0.241968E+02  0.353E-02    9.30       0.0  T
   2    -24.1967951 -0.502570E-06  0.204E-02    9.30       1.0  T
   3    -24.1967951 -0.342017E-07  0.215E-03    9.30       9.7  T
   4    -24.1967952 -0.241651E-07  0.774E-04    9.30      26.9  T
   5    -24.1967952 -0.126280E-08  0.385E-04    9.30      54.2  T
     SCC iter.                  ...        0 min,  0.009 sec
     gradient                   ...        0 min,  0.004 sec
 * total energy  :   -23.8470196 Eh     change       -0.3518341E-04 Eh
   gradient norm :     0.0029913 Eh/α   predicted    -0.3505149E-04 (  -0.37%)
   displ. norm   :     0.2254328 α      lambda       -0.4678519E-04
   maximum displ.:     0.1455457 α      in ANC's #1, #5, #4, ...

........................................................................
.............................. CYCLE   56 ..............................
........................................................................
   1    -24.1951289 -0.241951E+02  0.447E-02    9.29       0.0  T
   2    -24.1951293 -0.400421E-06  0.261E-02    9.29       1.0  T
   3    -24.1951293 -0.553143E-07  0.179E-03    9.29      11.6  T
   4    -24.1951293 -0.155536E-07  0.826E-04    9.29      25.3  T
   5    -24.1951293 -0.984805E-09  0.367E-04    9.29      56.8  T
     SCC iter.                  ...        0 min,  0.009 sec
     gradient                   ...        0 min,  0.004 sec
 * total energy  :   -23.8470501 Eh     change       -0.3042993E-04 Eh
   gradient norm :     0.0020438 Eh/α   predicted    -0.2458255E-04 ( -19.22%)
   displ. norm   :     0.1559319 α      lambda       -0.2622304E-04
   maximum displ.:     0.0985319 α      in ANC's #1, #5, #4, ...

........................................................................
.............................. CYCLE   57 ..............................
........................................................................
   1    -24.1945867 -0.241946E+02  0.327E-02    9.28       0.0  T
   2    -24.1945869 -0.139284E-06  0.191E-02    9.28       1.1  T
   3    -24.1945869 -0.322799E-07  0.115E-03    9.28      18.1  T
   4    -24.1945869 -0.523060E-08  0.598E-04    9.28      34.9  T
   5    -24.1945869 -0.411141E-09  0.197E-04    9.28     105.8  T
     SCC iter.                  ...        0 min,  0.009 sec
     gradient                   ...        0 min,  0.004 sec
 * total energy  :   -23.8470708 Eh     change       -0.2069272E-04 Eh
   gradient norm :     0.0019257 Eh/α   predicted    -0.1343368E-04 ( -35.08%)
   displ. norm   :     0.3162141 α      lambda       -0.3861483E-04
   maximum displ.:     0.1906129 α      in ANC's #1, #5, #8, ...

........................................................................
.............................. CYCLE   58 ..............................
........................................................................
   1    -24.1943548 -0.241944E+02  0.653E-02    9.27       0.0  T
   2    -24.1943552 -0.459883E-06  0.382E-02    9.27       1.0  T
   3    -24.1943554 -0.165630E-06  0.225E-03    9.27       9.3  T
   4    -24.1943554 -0.385292E-08  0.111E-03    9.27      18.7  T
   5    -24.1943554 -0.102727E-08  0.218E-04    9.27      95.4  T
   6    -24.1943554 -0.391811E-09  0.532E-05    9.27     392.2  T
     SCC iter.                  ...        0 min,  0.010 sec
     gradient                   ...        0 min,  0.004 sec
 * total energy  :   -23.8470976 Eh     change       -0.2681004E-04 Eh
   gradient norm :     0.0018584 Eh/α   predicted    -0.2016635E-04 ( -24.78%)
   displ. norm   :     0.1017849 α      lambda       -0.1258777E-04
   maximum displ.:     0.0629057 α      in ANC's #1, #5, #3, ...

........................................................................
.............................. CYCLE   59 ..............................
........................................................................
   1    -24.1959358 -0.241959E+02  0.199E-02    9.31       0.0  T
   2    -24.1959360 -0.195366E-06  0.116E-02    9.31       1.8  T
   3    -24.1959360 -0.168599E-07  0.118E-03    9.31      17.6  T
   4    -24.1959360 -0.784866E-09  0.403E-04    9.31      51.7  T
   5    -24.1959360 -0.243254E-10  0.120E-04    9.31     174.3  T
     SCC iter.                  ...        0 min,  0.009 sec
     gradient                   ...        0 min,  0.004 sec
 * total energy  :   -23.8471049 Eh     change       -0.7372620E-05 Eh
   gradient norm :     0.0015958 Eh/α   predicted    -0.6324420E-05 ( -14.22%)
   displ. norm   :     0.0236557 α      lambda       -0.5636971E-05
   maximum displ.:     0.0169253 α      in ANC's #8, #5, #11, ...

........................................................................
.............................. CYCLE   60 ..............................
........................................................................
   1    -24.1956061 -0.241956E+02  0.873E-03    9.30       0.0  T
   2    -24.1956061 -0.328761E-07  0.503E-03    9.30       4.1  T
   3    -24.1956062 -0.442237E-08  0.563E-04    9.30      37.0  T
   4    -24.1956062 -0.535419E-09  0.224E-04    9.30      92.9  T
     SCC iter.                  ...        0 min,  0.008 sec
     gradient                   ...        0 min,  0.004 sec
 * total energy  :   -23.8471097 Eh     change       -0.4773425E-05 Eh
   gradient norm :     0.0007968 Eh/α   predicted    -0.2819724E-05 ( -40.93%)
   displ. norm   :     0.0274659 α      lambda       -0.2711597E-05
   maximum displ.:     0.0191854 α      in ANC's #8, #5, #12, ...

   *** GEOMETRY OPTIMIZATION CONVERGED AFTER 60 ITERATIONS ***

------------------------------------------------------------------------
 total energy gain   :        -0.1691378 Eh     -106.1356 kcal/mol
 total RMSD          :         3.8560814 a0        2.0406 Å
 total power (kW/mol):        -7.4011873 (step) -346.0673 (real)
------------------------------------------------------------------------

 ANCopt (total)                0 d,  0 h,  0 min,  1.283 sec
 optimizer setup                ...        0 min,  0.000 sec (  0.028%)
 model hessian                  ...        0 min,  0.063 sec (  4.929%)
 ANC generation                 ...        0 min,  0.006 sec (  0.452%)
 coordinate transformation      ...        0 min,  0.002 sec (  0.145%)
 single point calculation       ...        0 min,  1.080 sec ( 84.139%)
 optimization log               ...        0 min,  0.110 sec (  8.568%)
 hessian update                 ...        0 min,  0.002 sec (  0.174%)
 rational function              ...        0 min,  0.016 sec (  1.259%)

================
 final structure:
================
23
 xtb: 6.4.1 (afa7bdf)
N         3.39558839056577   -2.81595082987487    1.21081125289961
C         4.39731618762424   -2.07431176200779    1.96431473094922
H         2.96713122477250   -3.52369353067804    1.79628550717886
C        -1.36193761969813   -1.38831558525450   -2.24534413367528
C        -0.88277367036342   -0.09026991171954   -2.76606232137923
C        -2.51947436506363   -1.49185028164788   -1.33117445212941
H        -0.97711384730052   -2.29278530691218   -2.68678923988957
C         3.84057345468897   -1.39465603049391    3.22372494593279
C         5.04567538901971   -1.04499296903548    1.04078232985369
H         5.15962617972844   -2.80416792200268    2.26843353299359
H         3.08924973351773   -0.65396565602259    2.95201043916874
H         4.63742192764489   -0.89449963836145    3.76894861125453
H         3.38038795093657   -2.12879561250383    3.88392603124187
H         4.32310199073324   -0.28121321864959    0.75980919128675
H         5.40049231077246   -1.53411745290281    0.13808959145188
H         5.88489097509703   -0.56494321191878    1.53755821236037
H        -1.07220934282083    0.71068753746261   -2.05242492114790
H        -1.38947261649271    0.18222002300359   -3.70214457200228
H         0.18409013858115   -0.12799936009975   -2.98622440144066
H        -2.66732829541172   -0.56381698558990   -0.78125497041350
H        -2.38477437854375   -2.30953511837299   -0.62101364655028
H        -3.44874875875889   -1.70405134952767   -1.87737250760673
H         2.66211750455715   -2.18808622406952    0.89940102516678
 
 Bond Distances (Angstroems)
 ---------------------------
N1-C2=1.4565         N1-H3=1.0135         N1-H23=1.0145        C2-N1=1.4565         C2-C8=1.5356         C2-C9=1.5273         
C2-H10=1.0983        H3-N1=1.0135         C4-C5=1.4784         C4-C6=1.4786         C4-H7=1.0775         C5-C4=1.4784         
C5-H17=1.0894        C5-H18=1.0987        C5-H19=1.0900        C6-C4=1.4786         C6-H20=1.0888        C6-H21=1.0914        
C6-H22=1.0986        H7-C4=1.0775         C8-C2=1.5356         C8-H11=1.0895        C8-H12=1.0874        C8-H13=1.0893        
C9-C2=1.5273         C9-H14=1.0883        C9-H15=1.0863        C9-H16=1.0870        H10-C2=1.0983        H11-C8=1.0895        
H12-C8=1.0874        H13-C8=1.0893        H14-C9=1.0883        H15-C9=1.0863        H16-C9=1.0870        H17-C5=1.0894        
H18-C5=1.0987        H19-C5=1.0900        H20-C6=1.0888        H21-C6=1.0914        H22-C6=1.0986        H23-N1=1.0145        
 C  H  Rav=1.0900 sigma=0.0054  Rmin=1.0775  Rmax=1.0987    14
 C  C  Rav=1.5050 sigma=0.0266  Rmin=1.4784  Rmax=1.5356     4
 N  H  Rav=1.0140 sigma=0.0005  Rmin=1.0135  Rmax=1.0145     2
 N  C  Rav=1.4565 sigma=0.0000  Rmin=1.4565  Rmax=1.4565     1
 
 selected bond angles (degree)
 --------------------
H3-N1-C2=110.33                H23-N1-C2=109.93               H23-N1-H3=107.69               C8-C2-N1=113.60                
C9-C2-N1=108.80                C9-C2-C8=110.58                H10-C2-N1=106.39               H10-C2-C8=108.58               
H10-C2-C9=108.70               C6-C4-C5=122.21                H7-C4-C5=118.49                H7-C4-C6=118.30                
H17-C5-C4=111.01               H18-C5-C4=111.61               H18-C5-H17=107.19              H19-C5-C4=110.98               
H19-C5-H17=109.15              H19-C5-H18=106.73              H20-C6-C4=111.03               H21-C6-C4=110.99               
H21-C6-H20=109.07              H22-C6-C4=111.61               H22-C6-H20=107.51              H22-C6-H21=106.45              
H11-C8-C2=110.27               H12-C8-C2=110.43               H12-C8-H11=108.52              H13-C8-C2=110.61               
H13-C8-H11=108.54              H13-C8-H12=108.40              H14-C9-C2=110.32               H15-C9-C2=109.74               
H15-C9-H14=108.56              H16-C9-C2=110.43               H16-C9-H14=108.70              H16-C9-H15=109.05              
 
 selected dihedral angles (degree)
 ---------------------------------
C8-C2-N1-H3=302.14            C8-C2-N1-H23= 60.76           C9-C2-N1-H3=178.49            C9-C2-N1-H23=297.12           
H10-C2-N1-H3= 61.54           H10-C2-N1-H23=180.17          H17-C5-C4-C6= 30.48           H17-C5-C4-H7=198.81           
H18-C5-C4-C6=270.96           H18-C5-C4-H7= 79.29           H19-C5-C4-C6=152.05           H19-C5-C4-H7=320.37           
H20-C6-C4-C5=335.34           H20-C6-C4-H7=166.99           H21-C6-C4-C5=213.85           H21-C6-C4-H7= 45.50           
H22-C6-C4-C5= 95.28           H22-C6-C4-H7=286.93           H11-C8-C2-N1=297.42           H11-C8-C2-C9= 60.08           
H11-C8-C2-H10=179.26          H12-C8-C2-N1=177.48           H12-C8-C2-C9=300.15           H12-C8-C2-H10= 59.33          
H13-C8-C2-N1= 57.48           H13-C8-C2-C9=180.15           H13-C8-C2-H10=299.33          H14-C9-C2-N1= 67.15           
H14-C9-C2-C8=301.73           H14-C9-C2-H10=182.62          H15-C9-C2-N1=307.58           H15-C9-C2-C8=182.16           
H15-C9-C2-H10= 63.05          H16-C9-C2-N1=187.33           H16-C9-C2-C8= 61.91           H16-C9-C2-H10=302.80          
           -------------------------------------------------
          |                Final Singlepoint                |
           -------------------------------------------------

          ...................................................
          :                      SETUP                      :
          :.................................................:
          :  # basis functions                  44          :
          :  # atomic orbitals                  44          :
          :  # shells                           30          :
          :  # electrons                        45          :
          :  max. iterations                   250          :
          :  Hamiltonian                  GFN2-xTB          :
          :  restarted?                      false          :
          :  GBSA solvation                   true          :
          :  PC potential                    false          :
          :  electronic temp.          300.0000000     K    :
          :  accuracy                    1.0000000          :
          :  -> integral cutoff          0.2500000E+02      :
          :  -> integral neglect         0.1000000E-07      :
          :  -> SCF convergence          0.1000000E-05 Eh   :
          :  -> wf. convergence          0.1000000E-03 e    :
          :  Broyden damping             0.4000000          :
          ...................................................

 iter      E             dE          RMSdq      gap      omega  full diag
   1    -24.1956062 -0.241956E+02  0.707E-05    9.30       0.0  T
   2    -24.1956062 -0.109175E-10  0.393E-05    9.30     530.7  T
   3    -24.1956062 -0.373035E-12  0.165E-05    9.30    1266.4  T

   *** convergence criteria satisfied after 3 iterations ***

         #    Occupation            Energy/Eh            Energy/eV
      -------------------------------------------------------------
         1        2.0000           -0.6255999             -17.0234
       ...           ...                  ...                  ...
        17        2.0000           -0.4449502             -12.1077
        18        2.0000           -0.4374819             -11.9045
        19        2.0000           -0.4357686             -11.8579
        20        2.0000           -0.4276451             -11.6368
        21        2.0000           -0.4238224             -11.5328
        22        2.0000           -0.3570967              -9.7171
        23        1.0000           -0.2821909              -7.6788 (HOMO)
        24                          0.0596341               1.6227 (LUMO)
        25                          0.1044869               2.8432
        26                          0.1168273               3.1790
        27                          0.1209044               3.2900
        28                          0.1353810               3.6839
       ...                                ...                  ...
        44                          0.3661554               9.9636
      -------------------------------------------------------------
                  HL-Gap            0.3418250 Eh            9.3015 eV
             Fermi-level           -0.2154611 Eh           -5.8630 eV

 SCC (total)                   0 d,  0 h,  0 min,  0.017 sec
 SCC setup                      ...        0 min,  0.001 sec (  6.100%)
 Dispersion                     ...        0 min,  0.000 sec (  2.324%)
 classical contributions        ...        0 min,  0.000 sec (  0.248%)
 integral evaluation            ...        0 min,  0.002 sec ( 10.841%)
 iterations                     ...        0 min,  0.009 sec ( 54.149%)
 molecular gradient             ...        0 min,  0.004 sec ( 24.793%)
 printout                       ...        0 min,  0.000 sec (  1.260%)

         :::::::::::::::::::::::::::::::::::::::::::::::::::::
         ::                     SUMMARY                     ::
         :::::::::::::::::::::::::::::::::::::::::::::::::::::
         :: total energy             -23.847109711357 Eh    ::
         :: total w/o Gsasa/hb       -23.830618448243 Eh    ::
         :: gradient norm              0.000796936676 Eh/a0 ::
         :: HOMO-LUMO gap              9.301532517126 eV    ::
         ::.................................................::
         :: SCC energy               -24.195606153250 Eh    ::
         :: -> isotropic ES            0.018841323450 Eh    ::
         :: -> anisotropic ES          0.008827296485 Eh    ::
         :: -> anisotropic XC          0.018712586637 Eh    ::
         :: -> dispersion             -0.009427120274 Eh    ::
         :: -> Gsolv                  -0.016715706093 Eh    ::
         ::    -> Gelec               -0.000224442979 Eh    ::
         ::    -> Gsasa               -0.019638002820 Eh    ::
         ::    -> Ghb                 -0.002178075738 Eh    ::
         ::    -> Gshift               0.005324815444 Eh    ::
         :: repulsion energy           0.348433687044 Eh    ::
         :: add. restraining           0.000000000000 Eh    ::
         :: total charge              -0.000000000000 e     ::
         :::::::::::::::::::::::::::::::::::::::::::::::::::::

           -------------------------------------------------
          |                Property Printout                |
           -------------------------------------------------

    * Orbital Energies and Occupations

         #    Occupation            Energy/Eh            Energy/eV
      -------------------------------------------------------------
         1        2.0000           -0.6255999             -17.0234
       ...           ...                  ...                  ...
        11        2.0000           -0.4855991             -13.2138
        12        2.0000           -0.4813555             -13.0983
        13        2.0000           -0.4702736             -12.7968
        14        2.0000           -0.4689533             -12.7609
        15        2.0000           -0.4585376             -12.4774
        16        2.0000           -0.4580090             -12.4631
        17        2.0000           -0.4449502             -12.1077
        18        2.0000           -0.4374819             -11.9045
        19        2.0000           -0.4357686             -11.8579
        20        2.0000           -0.4276451             -11.6368
        21        2.0000           -0.4238224             -11.5328
        22        2.0000           -0.3570967              -9.7171
        23        1.0000           -0.2821909              -7.6788 (HOMO)
        24                          0.0596341               1.6227 (LUMO)
        25                          0.1044869               2.8432
        26                          0.1168273               3.1790
        27                          0.1209044               3.2900
        28                          0.1353810               3.6839
        29                          0.1533060               4.1717
        30                          0.1647956               4.4843
        31                          0.1828542               4.9757
        32                          0.1889453               5.1415
        33                          0.1907910               5.1917
        34                          0.2010287               5.4703
       ...                                ...                  ...
        44                          0.3661554               9.9636
      -------------------------------------------------------------
                  HL-Gap            0.3418250 Eh            9.3015 eV
             Fermi-level           -0.2154611 Eh           -5.8630 eV

     #   Z          covCN         q      C6AA      α(0)
     1   7 N        2.632    -0.376    29.719     8.096
     2   6 C        3.779     0.062    19.555     6.300
     3   1 H        0.860     0.150     1.402     1.855
     4   6 C        2.882    -0.074    29.854     8.958
     5   6 C        3.751    -0.104    22.554     6.773
     6   6 C        3.751    -0.104    22.553     6.772
     7   1 H        0.926     0.014     2.832     2.631
     8   6 C        3.752    -0.118    22.812     6.811
     9   6 C        3.756    -0.119    22.835     6.813
    10   1 H        0.923     0.022     2.696     2.568
    11   1 H        0.925     0.034     2.537     2.491
    12   1 H        0.925     0.035     2.523     2.484
    13   1 H        0.925     0.029     2.595     2.519
    14   1 H        0.925     0.039     2.459     2.452
    15   1 H        0.925     0.050     2.315     2.379
    16   1 H        0.925     0.038     2.472     2.459
    17   1 H        0.925     0.042     2.420     2.433
    18   1 H        0.923     0.050     2.320     2.382
    19   1 H        0.925     0.043     2.407     2.426
    20   1 H        0.925     0.042     2.429     2.437
    21   1 H        0.924     0.043     2.403     2.424
    22   1 H        0.923     0.049     2.334     2.389
    23   1 H        0.860     0.153     1.383     1.842

 Mol. C6AA /au·bohr⁶  :       3445.754068
 Mol. C8AA /au·bohr⁸  :      70582.242705
 Mol. α(0) /au        :         88.694298


Wiberg/Mayer (AO) data.
largest (>0.10) Wiberg bond orders for each atom

 ---------------------------------------------------------------------------
     #   Z sym  total        # sym  WBO       # sym  WBO       # sym  WBO
 ---------------------------------------------------------------------------
     1   7 N    2.999 --     2 C    1.017     3 H    0.963    23 H    0.962
     2   6 C    3.986 --     1 N    1.017     9 C    1.006     8 C    0.995
                            10 H    0.967
     3   1 H    0.978 --     1 N    0.963
     4   6 C    3.144 --     5 C    1.080     6 C    1.079     7 H    0.976
     5   6 C    3.988 --     4 C    1.080    17 H    0.978    19 H    0.973
                            18 H    0.939
     6   6 C    3.988 --     4 C    1.079    20 H    0.981    21 H    0.968
                            22 H    0.941
     7   1 H    0.999 --     4 C    0.976
     8   6 C    3.996 --     2 C    0.995    13 H    0.987    11 H    0.987
                            12 H    0.986
     9   6 C    3.996 --     2 C    1.006    16 H    0.987    14 H    0.986
                            15 H    0.986
    10   1 H    0.999 --     2 C    0.967
    11   1 H    0.999 --     8 C    0.987
    12   1 H    0.999 --     8 C    0.986
    13   1 H    0.999 --     8 C    0.987
    14   1 H    0.998 --     9 C    0.986
    15   1 H    0.997 --     9 C    0.986
    16   1 H    0.999 --     9 C    0.987
    17   1 H    0.990 --     5 C    0.978
    18   1 H    0.945 --     5 C    0.939
    19   1 H    0.984 --     5 C    0.973
    20   1 H    0.994 --     6 C    0.981
    21   1 H    0.979 --     6 C    0.968
    22   1 H    0.947 --     6 C    0.941
    23   1 H    0.977 --     1 N    0.962
 ---------------------------------------------------------------------------

Topologies differ in total number of bonds
Writing topology from bond orders to xtbtopo.mol

molecular dipole:
                 x           y           z       tot (Debye)
 q only:       -0.199       0.248       0.125
   full:       -0.444       0.385       0.379       1.778
molecular quadrupole (traceless):
                xx          xy          yy          xz          yz          zz
 q only:        0.276       2.798      -1.462       0.778      -2.167       1.186
  q+dip:       -2.269       4.999      -1.999       3.415      -4.071       4.268
   full:       -2.188       5.445      -2.226       3.591      -4.224       4.414

           -------------------------------------------------
          |                Geometry Summary                 |
           -------------------------------------------------

      molecular mass/u    :      102.1981706
   center of mass at/Å    :        1.7205625      -1.4694810       0.1850969
  moments of inertia/u·Å² :        0.1580571E+03   0.1311679E+04   0.1372318E+04
rotational constants/cm⁻¹ :        0.1066554E+00   0.1285195E-01   0.1228406E-01

 * 21 selected distances

     #   Z          #   Z                                           value/Å
     1   7 N        2   6 C                                       1.4564527
     1   7 N        3   1 H                                       1.0135361 (min)
     4   6 C        5   6 C                                       1.4784005
     4   6 C        6   6 C                                       1.4786200
     4   6 C        7   1 H                                       1.0775104
     2   6 C        8   6 C                                       1.5355808 (max)
     2   6 C        9   6 C                                       1.5273437
     2   6 C       10   1 H                                       1.0983145
     8   6 C       11   1 H                                       1.0894670
     8   6 C       12   1 H                                       1.0873788
     8   6 C       13   1 H                                       1.0893104
     9   6 C       14   1 H                                       1.0883096
     9   6 C       15   1 H                                       1.0862744
     9   6 C       16   1 H                                       1.0869760
     5   6 C       17   1 H                                       1.0893563
     5   6 C       18   1 H                                       1.0987468
     5   6 C       19   1 H                                       1.0899969
     6   6 C       20   1 H                                       1.0888150
     6   6 C       21   1 H                                       1.0913666
     6   6 C       22   1 H                                       1.0985957
     1   7 N       23   1 H                                       1.0144801

 * 4 distinct bonds (by element types)

   Z      Z             #   av. dist./Å        max./Å        min./Å
   1 H    6 C          14     1.0900299     1.0987468     1.0775104
   6 C    6 C           4     1.5049863     1.5355808     1.4784005
   1 H    7 N           2     1.0140081     1.0144801     1.0135361
   6 C    7 N           1     1.4564527     1.4564527     1.4564527


optimized geometry written to: xtbopt.xyz


           -------------------------------------------------
          | TOTAL ENERGY              -23.847109711357 Eh   |
          | GRADIENT NORM               0.000796936676 Eh/α |
          | HOMO-LUMO GAP               9.301532517126 eV   |
           -------------------------------------------------

------------------------------------------------------------------------
 * finished run on 2022/02/24 at 18:52:10.028     
------------------------------------------------------------------------
 total:
 * wall-time:     0 d,  0 h,  0 min,  2.564 sec
 *  cpu-time:     0 d,  0 h,  0 min,  6.629 sec
 * ratio c/w:     2.585 speedup
 SCF:
 * wall-time:     0 d,  0 h,  0 min,  0.024 sec
 *  cpu-time:     0 d,  0 h,  0 min,  0.097 sec
 * ratio c/w:     3.997 speedup
 ANC optimizer:
 * wall-time:     0 d,  0 h,  0 min,  1.564 sec
 *  cpu-time:     0 d,  0 h,  0 min,  5.894 sec
 * ratio c/w:     3.768 speedup

