23
 energy: -23.677971909644 gnorm: 0.284025782101 xtb: 6.4.1 (afa7bdf)
N         1.31013625150000   -1.34733014510000    0.67041302400000
C         2.73276945350000   -1.79347242920000    0.89884485920000
H         0.74031494660000   -1.81292108830000    1.39035476250000
C         0.68554043090000   -1.64930485280000   -0.67028049890000
C         0.82818879070000   -0.44522786780000   -1.59401002470000
C        -0.79095130540000   -1.96321292030000   -0.43802856390000
H         1.18863007480000   -2.53017769300000   -1.08324706320000
C         3.02122995810000   -1.65368453020000    2.39111104290000
C         3.70040849190000   -0.95349283380000    0.07929128910000
H         2.79108895070000   -2.84939489170000    0.61247532990000
H         2.88394566560000   -0.62129545360000    2.73144148640000
H         4.05147942400000   -1.94936434760000    2.61632236560000
H         2.35711106530000   -2.29542732540000    2.98017723210000
H         3.50662844220000    0.11834230530000    0.19545047620000
H         3.63692627500000   -1.20617117190000   -0.98300081800000
H         4.73499636090000   -1.14221866250000    0.38588288970000
H         0.38784338180000    0.45513636450000   -1.15162032900000
H         0.31930236120000   -0.63221457030000   -2.54595137830000
H         1.87179223850000   -0.22565287590000   -1.82798630530000
H        -1.31046480220000   -1.11907393420000    0.02966326500000
H        -0.91095110780000   -2.83642737440000    0.21210696130000
H        -1.29313945580000   -2.18386686290000   -1.38602241750000
H         1.22100457180000   -0.34265723610000    0.88090265040000
23
 energy: -23.752072871085 gnorm: 0.114027265316 xtb: 6.4.1 (afa7bdf)
N         1.29387201686062   -1.33452417407922    0.69600951638241
C         2.85102227955506   -1.80816028121746    0.95692021717442
H         0.70888149825222   -1.80919588571547    1.43728690097279
C         0.59418234250733   -1.64792730856655   -0.76524311245625
C         0.80980452953239   -0.43977652522523   -1.63056403540479
C        -0.83414593321638   -1.97481386661719   -0.46771666429236
H         1.16571502425662   -2.52229410466263   -1.10309555600739
C         3.06319040309103   -1.66343583838936    2.42786946314024
C         3.73333472705552   -0.95785656066408    0.08386781508033
H         2.82183457230756   -2.85258040750529    0.62679275851177
H         2.90034347673723   -0.62782366438531    2.73493503518565
H         4.09574797746938   -1.95293604458219    2.66719155228534
H         2.36977339824233   -2.29813511945018    2.98390444092295
H         3.51543178460400    0.10713431222863    0.20226623677692
H         3.63595626302400   -1.21045513160552   -0.97334808381536
H         4.77527022451640   -1.13100461618428    0.37860711599363
H         0.37869873684951    0.44832509849647   -1.16324046294489
H         0.30800251003098   -0.61037534305749   -2.59137392431989
H         1.86311140592865   -0.23534892811282   -1.82636299184131
H        -1.31912738307715   -1.12332383325107    0.01482983973981
H        -0.91369976275255   -2.83732289618541    0.19869652621730
H        -1.35206085004186   -2.19729821664065   -1.41082037786399
H         1.19869122206711   -0.29998106182772    0.91687802606266
23
 energy: -23.777830202612 gnorm: 0.045741913688 xtb: 6.4.1 (afa7bdf)
N         1.29299441675744   -1.33174941575258    0.70031015846741
C         2.93286594453872   -1.82113909426978    1.00601913937054
H         0.71713118056112   -1.79355742612840    1.42980941677978
C         0.52318010694580   -1.64632725487247   -0.82922518097856
C         0.77097369609410   -0.43336150413268   -1.66906945590545
C        -0.88975233586150   -1.97739672280538   -0.50577998404605
H         1.12743882735756   -2.50984155168666   -1.12799784549013
C         3.11827052321459   -1.66731809144162    2.47124793301653
C         3.77550744193840   -0.96255039766010    0.10731974766251
H         2.86197261527723   -2.85395894890926    0.65708010643368
H         2.94115159978473   -0.63190251604126    2.76222021988522
H         4.13620716108775   -1.95003567347930    2.75037585325872
H         2.41116457768971   -2.29977715919445    3.00645136364172
H         3.53364877094205    0.09576099838254    0.22001119809369
H         3.64029021110210   -1.22477161946936   -0.94141938866585
H         4.82786112237120   -1.10630700766129    0.36330041747670
H         0.35359122480633    0.45291781256977   -1.19169916425498
H         0.29616234802237   -0.56726737165915   -2.64386000775793
H         1.83486575863399   -0.25577009253024   -1.82652246240930
H        -1.36240549379788   -1.12902839808576   -0.01174165691588
H        -0.93634578811837   -2.83669074130773    0.16401727068411
H        -1.43732219488127   -2.21240227081078   -1.42171081103825
H         1.19437874933382   -0.31663595025406    0.92515336819178
23
 energy: -23.789714744773 gnorm: 0.014913125380 xtb: 6.4.1 (afa7bdf)
N         1.30495129407932   -1.34175650090193    0.68628736085728
C         2.99563830752712   -1.82880282491458    1.04837732422713
H         0.73932003970189   -1.80069022370888    1.40007554334247
C         0.46366114595928   -1.64338564824681   -0.87741196700887
C         0.72480102691603   -0.42384488795843   -1.70645763213331
C        -0.95091770889303   -1.97706240674556   -0.54009992582119
H         1.06391544241053   -2.49848414605570   -1.17258745574097
C         3.17169494653104   -1.66626663252132    2.51990226021829
C         3.82242009963857   -0.96607225723106    0.13863029171953
H         2.92278161677767   -2.85517270392056    0.70696167808395
H         2.99255067685990   -0.63006045477138    2.80338146412541
H         4.18115611232634   -1.94293342583120    2.83471629202536
H         2.46069913940912   -2.29838810826182    3.04897696281528
H         3.56443346352520    0.08735550368829    0.25048932042714
H         3.65581492375370   -1.24048654149901   -0.90226541637197
H         4.88646376749425   -1.08416973374841    0.35813042341740
H         0.31413574446860    0.46381057586125   -1.22757118470160
H         0.27401503469792   -0.52408285359962   -2.69715997931595
H         1.79643341101318   -0.27104445177543   -1.83479753803934
H        -1.42386495036132   -1.13310597971512   -0.04053619951934
H        -0.97939450194265   -2.83777194445134    0.12734679413287
H        -1.52760255397158   -2.22046218919455   -1.43600017838215
H         1.21072398587890   -0.34623256169680    0.90590199714256
23
 energy: -23.795509277199 gnorm: 0.018512095761 xtb: 6.4.1 (afa7bdf)
N         1.32668044648562   -1.36698294037755    0.65878601734682
C         3.04283401350746   -1.83326285370805    1.08495884473147
H         0.76496494000969   -1.83475316881212    1.36348040356306
C         0.41417084990823   -1.64267493571030   -0.91369203297828
C         0.67541961898078   -0.41566518343487   -1.73613588715740
C        -1.00639081921697   -1.96918460179723   -0.56713179059096
H         0.99288633360983   -2.49756399881844   -1.23095928099541
C         3.21540124782805   -1.65610790513411    2.56243295766304
C         3.86757394571502   -0.96836581603387    0.17517520860905
H         2.99363398853223   -2.86311782775732    0.76293547948389
H         3.04233725576680   -0.61863087379027    2.84404073422257
H         4.22211905699352   -1.93027819704795    2.89030388436449
H         2.50902371813972   -2.28782586698725    3.09759170322548
H         3.60810839187955    0.08285406312329    0.29223229419224
H         3.68576087488442   -1.24770296569102   -0.86049780191120
H         4.93567805415686   -1.07775886212234    0.37452002579968
H         0.26148761037797    0.47192678319723   -1.26029846266461
H         0.23912902486554   -0.49978370969269   -2.73517338461991
H         1.74816865141327   -0.27347969448103   -1.85102314668555
H        -1.48330746339088   -1.12825329064018   -0.06570683676180
H        -1.03454287083812   -2.83438238819469    0.09266477200944
H        -1.59581420209731   -2.21139478839068   -1.45594975604672
H         1.23850779628873   -0.37672137489853    0.87173629070062
23
 energy: -23.799216473724 gnorm: 0.019145400079 xtb: 6.4.1 (afa7bdf)
N         1.35631623798762   -1.40632709050259    0.62300271309158
C         3.08029314942006   -1.83535040367258    1.11832260750558
H         0.79564752057120   -1.88605371634715    1.32247142092900
C         0.36965082437766   -1.64401072395915   -0.94255307448486
C         0.62473237941309   -0.41011344856467   -1.76032560089670
C        -1.05703123155722   -1.95606690247875   -0.58987686755006
H         0.91760045396723   -2.50522881489240   -1.29937842360134
C         3.25103641587525   -1.63919054151738    2.59897646009969
C         3.91230651121432   -0.97050659664493    0.21443312862687
H         3.07164168435115   -2.87569738052747    0.82059823367523
H         3.08409520255280   -0.59897267119892    2.87542342244432
H         4.25950320707698   -1.91128521935406    2.92574354775897
H         2.55037949825065   -2.26698597764331    3.14697229066040
H         3.66032413852760    0.08046331128101    0.34329516329588
H         3.72318867826261   -1.24372934750744   -0.82032677919249
H         4.98007441777790   -1.08589041052619    0.40641577750440
H         0.19981311095263    0.47319517392738   -1.28563213982809
H         0.19508002662973   -0.49073163941959   -2.76262204807306
H         1.69609428722351   -0.26435785700297   -1.86890782547348
H        -1.53100071429435   -1.11397880534826   -0.08650276444280
H        -1.09694539643525   -2.82581224373428    0.06263483356143
H        -1.64998836873519   -2.18799579780049   -1.48034048152121
H         1.27101843039000   -0.41448329376580    0.83246664141074
23
 energy: -23.801664536300 gnorm: 0.019470703468 xtb: 6.4.1 (afa7bdf)
N         1.39324539374216   -1.45729401648621    0.58359736610867
C         3.10741365745686   -1.83710264326290    1.14352577648859
H         0.83304060633056   -1.94772014801152    1.27913699471537
C         0.33349210221180   -1.64874419473231   -0.96479125286794
C         0.57743074708436   -0.40748610875728   -1.77743363989811
C        -1.09866803925962   -1.93933644729276   -0.60475932184086
H         0.84347296355340   -2.51804625977239   -1.37191143216010
C         3.27276632761908   -1.61685618840176    2.62556325180435
C         3.95440107360130   -0.97217822854325    0.25222571198602
H         3.15009764011617   -2.88932334656607    0.87222411938477
H         3.10988066482826   -0.57287326300268    2.89188643211730
H         4.28527671958500   -1.88543521434104    2.94627030779534
H         2.57756685870893   -2.23700715498880    3.18998557612347
H         3.71711488976721    0.08028109796434    0.39804209164695
H         3.76482562585509   -1.22899727229323   -0.78602262477379
H         5.01916337403260   -1.10612766183313    0.44820555640251
H         0.13796282960777    0.46849140802568   -1.30122497188990
H         0.14769365251610   -0.49213429962520   -2.77994182301635
H         1.64625715617730   -0.24737828052988   -1.88599553728067
H        -1.56239790777025   -1.09282476669462   -0.09831696509901
H        -1.15853486913543   -2.81354998764655    0.04080513127019
H        -1.69236561924121   -2.15404846754921   -1.50105067591924
H         1.30469461641255   -0.46341895285922    0.79427016440242
23
 energy: -23.803376636450 gnorm: 0.027517085515 xtb: 6.4.1 (afa7bdf)
N         1.43457976706607   -1.50845333718426    0.54929687686924
C         3.12110848454780   -1.83924427664484    1.15426039943910
H         0.87320217364192   -2.00670847225174    1.24014164592381
C         0.31072478243597   -1.65557811788299   -0.97934310648922
C         0.54021601050322   -0.40743784109909   -1.78669427136890
C        -1.12409814252850   -1.92417263081451   -0.60786779517005
H         0.78456814905991   -2.52965812040022   -1.43119162870053
C         3.27434979748389   -1.59452170605985    2.63699996729010
C         3.98917976753318   -0.97310765383939    0.28227367389658
H         3.21056450434594   -2.89863880966680    0.90548501759791
H         3.11230884241686   -0.54639454015807    2.88886748809708
H         4.29012005292976   -1.85741044200805    2.95502821754234
H         2.58245607188355   -2.20525820527413    3.21600953359912
H         3.77140757282904    0.08151405698492    0.44785997436310
H         3.80665409619797   -1.20629724573916   -0.76269738872911
H         5.04867518713136   -1.13370228197720    0.49118272645247
H         0.08680324080536    0.45998419530685   -1.30693472613582
H         0.10525503733279   -0.49865302703595   -2.78739709494499
H         1.60569435230834   -0.22790068016182   -1.90145903437803
H        -1.57155613786581   -1.07139682820593   -0.09689900402380
H        -1.20434533581676   -2.80180906866123    0.03205548537753
H        -1.72158957207487   -2.11967905989635   -1.50837378913274
H         1.33755176163298   -0.51458630453015    0.76368706812480
23
 energy: -23.806181279685 gnorm: 0.049243498926 xtb: 6.4.1 (afa7bdf)
N         1.49928063552847   -1.57158763011741    0.51519891618292
C         3.12396801609412   -1.84098665730383    1.15259777471832
H         0.93401278689649   -2.07856579550038    1.19776992129945
C         0.29178443545097   -1.66414342600779   -0.98956747630983
C         0.50361273702864   -0.40965433428585   -1.79222546462236
C        -1.14277573920510   -1.90731230755352   -0.60006140881819
H         0.72380249565983   -2.54063121433529   -1.48835521849945
C         3.25498052285953   -1.56756713713032    2.63598620260293
C         4.02575053106070   -0.97235262416732    0.31195143396631
H         3.26703908382595   -2.90433973232362    0.92945235726947
H         3.09052291119929   -0.51493937291073    2.86749250029861
H         4.27282410305054   -1.82130487048086    2.95577347539920
H         2.56451561742552   -2.16654552293759    3.22842184881155
H         3.83571538060196    0.08471900986043    0.50472136651383
H         3.85888640441553   -1.16973372895827   -0.74389655617387
H         5.07618459227966   -1.17270055657857    0.54453796537476
H         0.03503878342146    0.44756624715419   -1.30822168089828
H         0.05969618192644   -0.50962704763106   -2.79031007582772
H         1.56509168370460   -0.20475394709532   -1.91891331947101
H        -1.56754793339662   -1.04709160872373   -0.08258461872893
H        -1.24593460318946   -2.78818400079587    0.03377474407109
H        -1.74787475907590   -2.08020562207867   -1.50277942108068
H         1.38525659623737   -0.57916851729858    0.73352696942184
23
 energy: -23.812022392782 gnorm: 0.086261140098 xtb: 6.4.1 (afa7bdf)
N         1.62233118267974   -1.67366810690439    0.47482919680184
C         3.09543517865098   -1.83645615683287    1.13798024367971
H         1.03895655324715   -2.18658804955823    1.13976400546174
C         0.27514482010455   -1.67353438115629   -0.98714056211702
C         0.46242788678488   -0.41508299250956   -1.78932810894740
C        -1.15498838994248   -1.88326749948841   -0.57907284275794
H         0.64211912667205   -2.55099627995087   -1.55516438033133
C         3.20468110883573   -1.52599018398511    2.61872298668760
C         4.06160590148884   -0.96900712949492    0.34735867528647
H         3.32748758974360   -2.90226148179871    0.95650456642528
H         3.04357498545892   -0.46906028007003    2.82408497718375
H         4.22723008891664   -1.76913023010100    2.92743886067727
H         2.52195952678869   -2.10666459583660    3.23633835971331
H         3.92246359272889    0.09337402304201    0.58002406052185
H         3.92446553740313   -1.10689351891223   -0.72831556199722
H         5.09699033887321   -1.24153039584944    0.62532269063348
H        -0.03084072820940    0.42790876804623   -1.30506734050358
H         0.00384469431114   -0.53673195176782   -2.78436435219983
H         1.51888770612485   -0.16483814715237   -1.93914145912561
H        -1.54887132454063   -1.01312631694077   -0.05802250152646
H        -1.29725415828358   -2.76841154859618    0.04639494298701
H        -1.76246170188190   -2.02433993489584   -1.48931447417623
H         1.46864094784496   -0.68281400648656    0.69445825312330
23
 energy: -23.813073347511 gnorm: 0.091205810593 xtb: 6.4.1 (afa7bdf)
N         1.72178662560649   -1.72746846689554    0.48000768498423
C         3.03091633448588   -1.83093196928626    1.10809802672514
H         1.09717409202332   -2.22854812061919    1.11621810382022
C         0.28863549995775   -1.66973262637555   -0.95754688907043
C         0.47218018903119   -0.41674930507746   -1.76552716210603
C        -1.13240608827706   -1.87380969183934   -0.55293841572859
H         0.63626594208677   -2.53834110729771   -1.53560908196591
C         3.14866232484959   -1.50906011020063    2.58414039066318
C         4.04104864397800   -0.96718870961221    0.34294882284764
H         3.31714385446369   -2.88813211863421    0.95489290927234
H         2.99547466561117   -0.45407874303732    2.78452613582839
H         4.17514884835697   -1.75110833396861    2.87308483891490
H         2.47772824293569   -2.08179500788365    3.21822721702155
H         3.92264264831463    0.09609446866861    0.57992296225708
H         3.93160406186907   -1.08381032350946   -0.74033872469015
H         5.06749858734864   -1.26826374218039    0.65173727501460
H        -0.03015527406413    0.42383044664336   -1.29110641824553
H         0.00743221676592   -0.55892679751331   -2.76076885642741
H         1.52771547021132   -0.14284068004758   -1.93214346596948
H        -1.51974555537562   -1.00349334839904   -0.03777138119361
H        -1.29389761592630   -2.75965793864146    0.06872863905185
H        -1.72726653867792   -2.00696970764757   -1.47133458969210
H         1.50824328822493   -0.73812846384545    0.67684221418810
23
 energy: -23.820163204552 gnorm: 0.070208141311 xtb: 6.4.1 (afa7bdf)
N         1.70044720136463   -1.71456973536434    0.48082099764649
C         3.07887013083529   -1.85000512718791    1.11225406031773
H         1.08097887152814   -2.22908772354591    1.10439141091407
C         0.27411566119930   -1.67503842180654   -0.98970399660984
C         0.46808638181389   -0.40927016622166   -1.77481470758008
C        -1.14619170261729   -1.87288786276769   -0.55327255108530
H         0.64462751313603   -2.54140405361058   -1.53862174892158
C         3.15961571790913   -1.51196116333168    2.59644792996298
C         4.05884111235314   -0.97034531149036    0.34190553894458
H         3.35005233138023   -2.90554561561005    0.95854596223328
H         2.98346369898759   -0.45215036508512    2.78121409276478
H         4.17826213744943   -1.74533283682694    2.91859617111595
H         2.47243899845595   -2.08868618131694    3.20964582220782
H         3.91136524479527    0.08580735475090    0.57614782570806
H         3.94059267715692   -1.10256292084891   -0.73205877744254
H         5.08381064946902   -1.23960327469026    0.63193772161990
H        -0.02222883600268    0.43199403252762   -1.28772819529327
H         0.01071359426793   -0.52962162848597   -2.77062448550615
H         1.52356316420533   -0.15932753568178   -1.92774584433541
H        -1.52461277716711   -1.00113711584103   -0.02284528338957
H        -1.28398765608314   -2.75733423081474    0.06986140446953
H        -1.76375448889833   -2.00940590807973   -1.45581445285322
H         1.48476083826132   -0.73163460587034    0.66575134061176
23
 energy: -23.826809735576 gnorm: 0.051201758121 xtb: 6.4.1 (afa7bdf)
N         1.73195940379788   -1.72070452469356    0.49809497011293
C         3.11052020192868   -1.86870871679590    1.10414760248800
H         1.09512594053550   -2.25797571511649    1.07865678937743
C         0.24992932365684   -1.67340075835818   -1.02296132360992
C         0.46498389067968   -0.39941746923277   -1.78355878508158
C        -1.15957416415918   -1.86915859112084   -0.54435278683728
H         0.64092986653627   -2.53880960389936   -1.53952977260437
C         3.15201382181611   -1.50930332293968    2.59617343376316
C         4.07699432750063   -0.97329570969558    0.34024315112145
H         3.39396122561134   -2.91849465888916    0.97048996542319
H         2.94386857092814   -0.44709612958520    2.75540070749971
H         4.15932291578978   -1.72196895215054    2.96497085028471
H         2.44409714462319   -2.08818982684107    3.18519701245973
H         3.89772324460201    0.07436963656063    0.57642552948637
H         3.95415309575887   -1.11608448877978   -0.72660642534455
H         5.09702708817617   -1.21619312040306    0.61783565957227
H        -0.01051706786375    0.44293277684597   -1.28396853131839
H         0.01971572660821   -0.49030491790825   -2.78421243880991
H         1.52322005600718   -0.17975291156861   -1.91775264076136
H        -1.52308240873285   -0.99799603941346    0.00329209605768
H        -1.26679660563798   -2.75290215821798    0.08096829138868
H        -1.81107919331338   -2.00820494963106   -1.42255365139174
H         1.47933405895065   -0.74845024536602    0.64789053222374
23
 energy: -23.833300169819 gnorm: 0.029873825539 xtb: 6.4.1 (afa7bdf)
N         1.77535832856530   -1.71626602279259    0.54551204211192
C         3.13150535557060   -1.87318976801406    1.10479939457794
H         1.11441911048353   -2.29143435311461    1.05836888837511
C         0.20764802849801   -1.66545817300343   -1.07156968645538
C         0.46585021890693   -0.38855565938159   -1.80234568419279
C        -1.17669877048803   -1.87077536903011   -0.54167167875137
H         0.63880408003285   -2.53682294521152   -1.53156671352328
C         3.15173089729826   -1.51178756146650    2.59842538766810
C         4.08916416828059   -0.97452872677875    0.33568284287764
H         3.42210147192657   -2.91401567781715    0.99135688211449
H         2.91481704383819   -0.45567963471457    2.73609879485694
H         4.13988440497361   -1.69935743951656    3.01223686876636
H         2.42211205975369   -2.09950286890897    3.15419620347445
H         3.87904032197024    0.06611165718275    0.56529965440172
H         3.95610310505435   -1.13299785567347   -0.72641229699214
H         5.10991958952501   -1.19310352129382    0.59926002315557
H         0.00966694259019    0.45686717157924   -1.28980985362343
H         0.04279364267859   -0.43391528591981   -2.81401037721440
H         1.53299893743882   -0.21139803954689   -1.90330972850148
H        -1.52491088803884   -1.00260824071012    0.01912113018482
H        -1.23820360096433   -2.75194057379814    0.09285812729738
H        -1.87198315974319   -2.02144467011741   -1.38134742458087
H         1.47170917564906   -0.75730683915189    0.64311743947269
23
 energy: -23.836561231209 gnorm: 0.021592969351 xtb: 6.4.1 (afa7bdf)
N         1.81548604368419   -1.73371502953146    0.56854254370140
C         3.15162298610476   -1.87285924307311    1.12258681666028
H         1.15390853971093   -2.34148234041757    1.03637214049978
C         0.15444629905250   -1.66811972353795   -1.13570638617704
C         0.44902306271984   -0.38017018659642   -1.82968938380617
C        -1.20790171855980   -1.86707010862885   -0.55066980786536
H         0.61144748217070   -2.54846022966325   -1.56513469709338
C         3.16194351115059   -1.50276816649307    2.61793932256545
C         4.10696798004212   -0.97453506938134    0.34510002864357
H         3.46230957611923   -2.91660287049678    1.01916192068440
H         2.89785886858660   -0.45069154750633    2.73702696314477
H         4.13836322883484   -1.66753452525381    3.06394371830517
H         2.42578547614544   -2.10116227846047    3.15433289008755
H         3.88937434324717    0.06614524093632    0.56641393560195
H         3.97225511602705   -1.14143888114298   -0.71748166942551
H         5.13271973915661   -1.18423961832952    0.60772290268776
H         0.00740558439351    0.46427785481552   -1.29970415990508
H         0.04492869999753   -0.37728017501859   -2.85318133121166
H         1.52359481721811   -0.23059402003224   -1.90380809114716
H        -1.53018594111801   -0.99713847901967    0.02850664440212
H        -1.23442281668524   -2.74671566200805    0.09169764814634
H        -1.95308270137953   -2.02274652318579   -1.35168751519788
H         1.48998228718085   -0.78420881517454    0.64200580219867
23
 energy: -23.838707170040 gnorm: 0.017636320125 xtb: 6.4.1 (afa7bdf)
N         1.83099182118734   -1.73229197596084    0.60223380749930
C         3.16642376809965   -1.85945186316291    1.15638485615636
H         1.17776817019483   -2.36610681708640    1.03436267777229
C         0.09578674583217   -1.66601569521970   -1.20387813106075
C         0.43658647948356   -0.37478556678798   -1.85891110295583
C        -1.23383091300927   -1.86959195225317   -0.57290063717071
H         0.59335070348199   -2.54916442038418   -1.58369395757713
C         3.18813325879050   -1.50372036445916    2.64742936489507
C         4.11210990437182   -0.97283806408731    0.35116757429328
H         3.46379962276506   -2.90136692525618    1.03949751001832
H         2.91340303544126   -0.46132699388069    2.76749594882175
H         4.15647022291566   -1.65678072808424    3.09555654374064
H         2.45802343884389   -2.11799077365806    3.17213326238857
H         3.89261658017907    0.07276649955025    0.54544974446580
H         3.97240913321996   -1.16539168086800   -0.70896237581193
H         5.14729752136521   -1.17041637019721    0.61078610438200
H         0.01133093360003    0.46876895431337   -1.31396245823186
H         0.05090420170790   -0.32781549133795   -2.88802896297507
H         1.51770022507700   -0.25516514732586   -1.91176682058717
H        -1.53886310528961   -0.99777880240117    0.00440373892480
H        -1.22855102518247   -2.74237127871746    0.08115915386817
H        -2.00827459486735   -2.04101960888782   -1.33422119781717
H         1.48824433559179   -0.78925533104731    0.66255559246122
23
 energy: -23.840413245247 gnorm: 0.014936833901 xtb: 6.4.1 (afa7bdf)
N         1.87948935109247   -1.77750898207082    0.60068462271210
C         3.20034910185397   -1.86338599813364    1.18814846473820
H         1.23483128574044   -2.44189266260952    1.00271423222767
C         0.02500849870084   -1.67552033991971   -1.29396651808955
C         0.39225106303552   -0.36952030528823   -1.89566442455084
C        -1.27690198358099   -1.85440595229819   -0.59498954723706
H         0.53199205228995   -2.55677372517710   -1.65958283091360
C         3.20572488931924   -1.48330305107120    2.68113954826258
C         4.14916950300307   -0.97473705222539    0.38259152985302
H         3.52799476343507   -2.91338279608013    1.07569482247655
H         2.90224697285064   -0.44089139275486    2.78636826849173
H         4.17937221347338   -1.61042335965924    3.13944316787591
H         2.48985960420338   -2.10630081579882    3.21373654962829
H         3.93147442471789    0.07642205899980    0.56099655237845
H         4.02217070355393   -1.18021741577002   -0.67733867573444
H         5.18443799331919   -1.16871990423821    0.65895074626542
H        -0.02411377308744    0.46365604153491   -1.32560363249182
H         0.01677547429425   -0.28111124647339   -2.92539501002485
H         1.47360360999756   -0.26392980070078   -1.94074054802868
H        -1.53981518447467   -0.97212633066278   -0.00275980639819
H        -1.25314921384976   -2.72341905533072    0.06292044777851
H        -2.10113984698381   -2.02155736313249   -1.31299027030158
H         1.51219896089585   -0.84006094833940    0.66993254658215
23
 energy: -23.841547692349 gnorm: 0.012718192039 xtb: 6.4.1 (afa7bdf)
N         1.90750748766944   -1.79519171011519    0.61308115119047
C         3.22304638914093   -1.86346006780981    1.21850266839997
H         1.27227969489437   -2.47148424989687    1.00152088773436
C        -0.03929019599068   -1.67512274085727   -1.36321830274007
C         0.35890437114886   -0.36679483710919   -1.92659220091598
C        -1.30985264492755   -1.84724060023564   -0.62384541785774
H         0.48503863262624   -2.55301559607276   -1.70067607501198
C         3.23032987931629   -1.47611035091162    2.70652203340010
C         4.16974329493927   -0.97739442040577    0.40635880988705
H         3.55427982145512   -2.91456548848410    1.10918654105052
H         2.91760063612275   -0.43796978729909    2.81549482713505
H         4.21517648440051   -1.58861070915432    3.14557301794146
H         2.53467849449471   -2.10776092831712    3.25585849955719
H         3.94263479776354    0.07753931938588    0.55942600679958
H         4.05438820981164   -1.20654410681209   -0.65026941410487
H         5.20464477886242   -1.15599115943143    0.69690922899422
H        -0.04779724005720    0.45841830014856   -1.34058673248928
H        -0.00355146557015   -0.24394426573392   -2.95771320882111
H         1.44448469810005   -0.27949940823105   -1.96032222379135
H        -1.55182024763413   -0.95946896723488   -0.03826592670210
H        -1.26674453588430   -2.71068365503928    0.04027790539872
H        -2.15095958767054   -2.01985170616964   -1.30970617905942
H         1.51910871078839   -0.86436326141335    0.69677433950518
23
 energy: -23.842333873092 gnorm: 0.009424613530 xtb: 6.4.1 (afa7bdf)
N         1.94267079824138   -1.81733029636974    0.61708770171742
C         3.25303290499116   -1.86636294928670    1.24571528011339
H         1.31243359303228   -2.50957114787059    0.99463733310666
C        -0.10674876965210   -1.67551342551815   -1.44006901378289
C         0.32018234823106   -0.36379311818774   -1.96641096012025
C        -1.34836771149352   -1.83787460989158   -0.65007971742015
H         0.42815648998019   -2.55327279159507   -1.75436120650849
C         3.25295844094761   -1.46902210049422    2.72859678129350
C         4.20354312881751   -0.98028869871264    0.43970215049395
H         3.58829315536367   -2.91271910337807    1.14922222694338
H         2.92896881874346   -0.43484846744164    2.83856470399838
H         4.25126562524537   -1.56299061149482    3.14864764793973
H         2.57616348657022   -2.10622036023872    3.29730713072223