23
 energy: -23.847109711357 gnorm: 0.000796936676 xtb: 6.4.1 (afa7bdf)
N         3.39558839056577   -2.81595082987487    1.21081125289961
C         4.39731618762424   -2.07431176200779    1.96431473094922
H         2.96713122477250   -3.52369353067804    1.79628550717886
C        -1.36193761969813   -1.38831558525450   -2.24534413367528
C        -0.88277367036342   -0.09026991171954   -2.76606232137923
C        -2.51947436506363   -1.49185028164788   -1.33117445212941
H        -0.97711384730052   -2.29278530691218   -2.68678923988957
C         3.84057345468897   -1.39465603049391    3.22372494593279
C         5.04567538901971   -1.04499296903548    1.04078232985369
H         5.15962617972844   -2.80416792200268    2.26843353299359
H         3.08924973351773   -0.65396565602259    2.95201043916874
H         4.63742192764489   -0.89449963836145    3.76894861125453
H         3.38038795093657   -2.12879561250383    3.88392603124187
H         4.32310199073324   -0.28121321864959    0.75980919128675
H         5.40049231077246   -1.53411745290281    0.13808959145188
H         5.88489097509703   -0.56494321191878    1.53755821236037
H        -1.07220934282083    0.71068753746261   -2.05242492114790
H        -1.38947261649271    0.18222002300359   -3.70214457200228
H         0.18409013858115   -0.12799936009975   -2.98622440144066
H        -2.66732829541172   -0.56381698558990   -0.78125497041350
H        -2.38477437854375   -2.30953511837299   -0.62101364655028
H        -3.44874875875889   -1.70405134952767   -1.87737250760673
H         2.66211750455715   -2.18808622406952    0.89940102516678
