38
 energy: -62.949268687254 gnorm: 0.000918419733 xtb: 6.4.1 (afa7bdf)
c        -3.33309245032775    0.36665786659447   -0.07303361766073
c        -2.64270703115682   -0.78805027513037    0.29528539601636
c        -1.26707119146491   -0.72614324562039    0.51095923871588
c        -0.59944950755894    0.47179143402977    0.35740086534497
c        -1.29099758644798    1.63459855085094    0.01403849969216
c        -2.66533670804164    1.56472975079767   -0.21120545425937
h        -3.20389866327727    2.45392383914386   -0.50140137250692
h        -0.73232473700497   -1.61980338356517    0.79064709556738
h         0.46625322615271    0.51901093790425    0.52532785749639
c        -0.55110951457967    2.88469970375655   -0.16538602471532
h         0.28416353858386    2.81891396029616   -0.85387367376095
c        -0.79662835109884    4.06076291358603    0.42514898225512
h        -4.39710097964557    0.30282121300104   -0.24541123465672
c        -3.39713515421521   -2.05338880640145    0.43938380156975
o        -2.62074641859702   -3.07814912166515    0.80193252128628
c        -3.25047246665050   -4.34423905929403    0.96568752391541
h        -2.44691751401238   -5.05295192202848    1.14718607522700
h        -3.80872251563003   -4.60964757735606    0.06539461153203
h        -3.94000513208825   -4.31582520468482    1.81204741530797
o        -4.59098491888589   -2.16534555151738    0.24835773230652
c        -1.82065060799403    4.30095058971903    1.45802938057444
h        -0.19889836306873    4.91719519821466    0.15135040620008
c        -2.05099931125824    5.73059190609507    1.80768470605791
o        -2.45292801405108    3.41121858334363    2.00460818746036
c        -1.01022898300683    6.65283800127794    1.92744358576393
c        -1.29486950905777    7.95645093633422    2.28386461116492
c        -2.59868015968163    8.37218939122005    2.50434447003444
c        -3.64436745103640    7.45915500610669    2.39112963713944
c        -3.35471484527457    6.13605205863256    2.05675953021652
h        -4.16491089000008    5.42676889970898    1.98254709021839
h        -2.78516200539235    9.40024038509452    2.77004859438513
h         0.01452400592092    6.34776610355163    1.78643398609306
h        -0.49116539147679    8.66923110622094    2.39127670636626
o        -4.95534588988960    7.74594895493592    2.58508378184167
c        -5.32377481819987    9.06256447714806    2.93824133985219
h        -4.87826194330901    9.35886427374835    3.89272615325498
h        -6.40773006590844    9.04202629154729    3.03456207425047
h        -5.03987045716785    9.77830264370237    2.16074797115318
38
 energy: -62.905285509415 gnorm: 0.065715316196 xtb: 6.4.1 (afa7bdf)
c        -3.13702662358813    0.48759983487780   -0.55887600271522
c        -2.68757552282987   -0.70124448614838    0.01582812425246
c        -1.36126743744460   -0.73906636178972    0.44267486959288
c        -0.56053978582600    0.38322860466867    0.38237785385811
c        -1.07500361457968    1.60883308072784   -0.04362405639383
c        -2.37065460222671    1.63347911912681   -0.55850827372969
h        -2.78652702433690    2.54098512471052   -0.96888836805324
h        -0.97825773768797   -1.71850313391290    0.68103330675894
h         0.42169597679592    0.29253594825473    0.82185399768479
c        -0.15294843464078    2.73464435602115    0.11367758085534
h         0.88953512787383    2.49609377717437   -0.06617176580376
c        -0.37849296648926    3.96270606300405    0.59651297543612
h        -4.06558636882409    0.59634787484487   -1.09911116754335
c        -3.63914072882468   -1.80026273032650    0.29455816167557
o        -2.99994717222365   -2.94478894216615    0.55116320965226
c        -3.55194967538937   -3.81957853722173    1.52911553185499
h        -3.00845507359850   -4.75062214388862    1.39241281952878
h        -4.64180336030382   -3.88758286038147    1.54348526382333
h        -3.17318164756086   -3.44171170804198    2.48113399457805
o        -4.84521084945631   -1.70824714767832    0.40053263468446
c        -1.53187474246400    4.35764380822509    1.42530031014139
h         0.51126832531803    4.57273230199284    0.64028457951050
c        -1.94192687815253    5.78617174246104    1.52707969384503
o        -2.16398345394849    3.50085305530149    2.02237185340462
c        -1.02972673798736    6.83690102512233    1.63635892589297
c        -1.45117597794643    8.08340493533385    2.05596766285484
c        -2.79030724102077    8.34332568149924    2.30201803623456
c        -3.72696386854945    7.32509430819796    2.14142344015776
c        -3.27854584916857    6.05164722803096    1.78991620914400
h        -4.02509786604956    5.27291522668756    1.82519130593095
h        -3.14457281113477    9.34305806907814    2.49513485659705
h         0.03338443531685    6.69798247237694    1.51987895095119
h        -0.74133886961063    8.84684910662559    2.33671230549655
o        -5.03719666436589    7.42585423396807    2.47559551082662
c        -5.56935897126767    8.24772018423298    3.49308076013134
h        -4.83131152899482    8.46290526758727    4.27173210012938
h        -6.37820565309857    7.60929887911465    3.84357151073276
h        -5.96311977955897    9.17195510948801    3.05935160220482
38
 energy: -62.907600615018 gnorm: 0.072759985732 xtb: 6.4.1 (afa7bdf)
c        -2.76047620694144    0.85846082464491   -0.78082182992802
c        -2.61608484325594   -0.35917054934419   -0.11586549531030
c        -1.38752384546711   -0.60960950850303    0.49293659386364
c        -0.44442884128762    0.39694434764591    0.53498008155222
c        -0.63905946049033    1.68432777875800    0.03196931599446
c        -1.80839749946569    1.85280465015482   -0.70876596279681
h        -1.97185805568794    2.77750839993912   -1.24086789487552
h        -1.11768045156869   -1.59362667636240    0.84179520298229
h         0.45902841438032    0.22244475893889    1.10019368444839
c         0.27245726692756    2.81739835758651    0.19830902533111
h         1.23121413475524    2.63738822011048   -0.27540583194835
c        -0.08636765201711    3.95663675122815    0.80288859310602
h        -3.71251782549164    0.88378985095995   -1.28962294118537
c        -3.73672657962638   -1.21808184971800    0.32847824718557
o        -3.30807471857409   -2.26599582485503    1.03734261434007
c        -4.16532803640316   -2.86766405744110    2.00143100895458
h        -4.87694005548313   -3.51409596814821    1.49482432589989
h        -4.62949266827747   -2.05692268555146    2.56699422692128
h        -3.47570864408873   -3.53743575326428    2.51952239294515
o        -4.91115172946650   -0.91232140120393    0.28925182508697
c        -1.45186385511119    4.15052736643638    1.32344627755783
h         0.48986587652482    4.86902923510350    0.83778835511813
c        -1.88398482512867    5.57200123907964    1.43242935791891
o        -2.19323148879328    3.25196219330790    1.68827622937419
c        -1.13916567977525    6.74858214308366    1.33764081611055
c        -1.79836427763184    7.92199770196306    1.64750541662440
c        -3.11643695168986    7.99802791844728    2.06973277228871
c        -3.89663246549208    6.84479073423128    2.03437278360321
c        -3.23619013251536    5.65314606369879    1.73420216555185
h        -3.77396647259212    4.71793558403437    1.76863654907000
h        -3.55921778863143    8.93856922312620    2.35537279964431
h        -0.11437566654964    6.83333863614700    1.01253610064159
h        -1.17433400577277    8.80237108716036    1.61491414724331
o        -5.18768512052744    6.74821832848448    2.43734959554687
c        -5.35632075951417    7.02620894524679    3.81147470639222
h        -4.39848137384526    7.37386597383254    4.21021629548396
h        -5.66843046571930    6.11080118923621    4.31074883391928
h        -6.17928494997257    7.73869644409485    3.92314500633536
38
 energy: -62.906033988205 gnorm: 0.072637998191 xtb: 6.4.1 (afa7bdf)
c        -2.54553858378994    1.03726058219764   -0.63747391593042
c        -2.41939214768410    0.07202395096157    0.36154916494036
c        -1.14214166714736   -0.14890967251665    0.87393687909123
c        -0.03663301836310    0.57966600282592    0.48486815935459
c        -0.26710453505250    1.73642119007974   -0.26149443488103
c        -1.48669531312803    1.87228796200088   -0.92373534231221
h        -1.59224124852502    2.68279011790933   -1.62862900209459
h        -1.01197500706815   -0.92575990659628    1.61039315939643
h         0.95623538972113    0.42232957819003    0.87934126227138
c         0.54379783498956    2.93981436703338   -0.07001975067058
h         1.52794676535895    3.09422192966996   -0.49854423284431
c        -0.01499359807176    3.96031927969082    0.59214151876703
h        -3.48900940483748    1.28993690615213   -1.09782246393721
c        -3.69052653410386   -0.62765492617036    0.65425133950091
o        -3.75506910438351   -1.36809842868286    1.76417584827333
c        -5.01413012319619   -1.98823665981583    2.00197460797883
h        -5.78242691082914   -1.36306175683556    1.55499295918990
h        -5.13853239511745   -2.02827018022075    3.08619484318421
h        -5.07137305676789   -2.97759967478797    1.54320257262461
o        -4.57899972138610   -0.42568907386660   -0.14832433670648
c        -1.32430542681786    3.89160523506953    1.26603646716205
h         0.56286450176455    4.86909915467700    0.66909711456891
c        -2.01615304651331    5.20537865778790    1.38661734340655
o        -1.74335803646868    2.89625464517297    1.83508670929886
c        -1.38340018527327    6.39867658336782    1.03484093377789
c        -2.08128369993922    7.58706299073929    1.12516865051200
c        -3.32151955944622    7.59005372512457    1.74418239409861
c        -3.92443938618475    6.40701870079755    2.16469040927241
c        -3.30079919542270    5.18504791750540    1.91138507554030
h        -3.73681809462221    4.20552833436447    2.03562898742554
h        -3.81853663759314    8.53060119021617    1.91913222584336
h        -0.38994482246561    6.34541630418060    0.61857061723214
h        -1.71476244892602    8.55020846456645    0.80338276936157
o        -5.18649308591079    6.35521087551069    2.65771147483073
c        -5.29557321164119    6.08496558727535    4.03937914692690
h        -4.74365594473098    6.82273067890069    4.62963887272119
h        -5.00102842496834    5.08650865979170    4.35716147129529
h        -6.37808612860759    6.11269591571493    4.19678167776265
38
 energy: -62.918381378399 gnorm: 0.075233879084 xtb: 6.4.1 (afa7bdf)
c        -2.41838225734777    1.05253722102146   -0.91586102121429
c        -2.53751882476022    0.18655134139324    0.17111500205813
c        -1.45225583146124    0.05247168423015    1.03537692089267
c        -0.35871437572386    0.87693207807342    0.86573425185127
c        -0.29186846924787    1.88818064483271   -0.09403912388643
c        -1.33126430893160    1.89333195127109   -1.02358438153476
h        -1.18924758868219    2.62205350270340   -1.80699039578962
h        -1.49026295280457   -0.66755659508718    1.83720128189349
h         0.43735764809948    0.79073882509429    1.59029727974099
c         0.76463000239935    2.89324898159380    0.03256719112576
h         1.72745511716888    2.63946099219553   -0.39706473583409
c         0.40946093988837    4.06412634867669    0.57574027213794
h        -3.18584792855119    1.19737076237940   -1.66146350028580
c        -3.89030209096521   -0.37461721456327    0.38576627361228
o        -4.10969075963950   -0.57449138382416    1.68817701473832
c        -5.31790825431108   -1.05105782329813    2.27079976145508
h        -5.73078320329183   -0.27487597724642    2.90954245751091
h        -4.98463671747127   -1.91717814386825    2.84645400169096
h        -6.04048850039592   -1.33463219512084    1.50265193746108
o        -4.72541333836680   -0.58899695443882   -0.46917999936623
c        -0.79279647383363    4.07893904482674    1.42868309567896
h         1.08568669427273    4.90225257078720    0.49836919788439
c        -1.70065318181392    5.25854875202916    1.48793667098013
o        -1.08269977629593    3.10997904629436    2.11221717092861
c        -1.54378403086781    6.37586319214030    0.66630196508103
c        -2.58806596807540    7.27886590243687    0.62725969846632
c        -3.71846859561768    7.15210664562646    1.41940496576765
c        -3.86905440715737    6.06593664892093    2.27816573534734
c        -2.82198390978579    5.14421717395610    2.29766270209843
h        -2.95981702103357    4.25536277711883    2.89427621271295
h        -4.48265516381969    7.91195520082249    1.38920369601489
h        -0.72658714688034    6.46635014018545   -0.03160396456246
h        -2.43374028421962    8.12196198376210   -0.02917450388346
o        -5.00499041968229    5.98754729564407    3.01439804965609
c        -5.23660484406178    5.01198193252873    4.00866339764003
h        -5.47041818272736    5.56606782524058    4.92279506394686
h        -4.41290327972968    4.34392841566647    4.25336468738655
h        -6.11678280450259    4.41280874961278    3.75635998818237
38
 energy: -62.919709587763 gnorm: 0.073268086739 xtb: 6.4.1 (afa7bdf)
c        -2.36107350961952    1.11034505762410   -1.07056953854658
c        -2.71842446046222    0.35965885361736    0.04943603043702
c        -1.77873304028166    0.33688783142949    1.07860234064437
c        -0.75303520027148    1.25992378765109    1.09577985051500
c        -0.42743251342333    2.01995967318944   -0.02875798517582
c        -1.22173157021851    1.88047266102251   -1.16632426093635
h        -1.01731049310174    2.39266088209347   -2.09411954657682
h        -1.87489172634483   -0.38614228172201    1.87282430770577
h        -0.14597031673744    1.39076474201664    1.97924145604113
c         0.62454810829279    3.03617271903886   -0.08378878390620
h         1.42098160883248    2.99751555137645   -0.81878773021838
c         0.57664168384934    4.11925781419007    0.70155670945017
h        -3.08822045790270    0.96215735867219   -1.85491709594223
c        -4.04817555514089   -0.22284433518665    0.33833038293270
o        -4.25718265117682   -0.10459946591532    1.65236576701849
c        -5.51969237311403   -0.44314650092145    2.21611167853028
h        -5.35477791708913   -0.20553671246494    3.26361395627663
h        -5.73280377549723   -1.49118770832712    1.99519248761531
h        -6.28049739554710    0.19896974466853    1.76727968444876
o        -4.85232738612648   -0.64227293112107   -0.46896267758285
c        -0.35631406546659    4.30481987739238    1.82775121522093
h         1.28185260539226    4.92902049164471    0.58892864650489
c        -1.58018666288043    5.10459954947213    1.54195025047115
o        -0.12196577759608    3.86699473277597    2.94289078871595
c        -1.76465364808260    5.88076432075356    0.39668903421188
c        -2.91395781801151    6.64107801550017    0.30456973901009
c        -3.87518015519839    6.66484816347750    1.30299786393241
c        -3.75875922236990    5.81241839762414    2.39831565080512
c        -2.57115156963733    5.08948777825974    2.51348034724729
h        -2.41809804155131    4.50725844695143    3.40935500327631
h        -4.78462821216672    7.22637488729206    1.16209002739153
h        -1.07200017862657    5.92916284786701   -0.42851401538598
h        -3.08350332387147    7.29804041699997   -0.53518498836525
o        -4.71905299065217    5.63900357315762    3.33974896969865
c        -4.97431318954189    4.30955548658583    3.74142869806057
h        -6.00702502725007    4.33572508076261    4.10217509990290
h        -4.26325332400988    4.01379509595124    4.51056987074722
h        -4.92048442949658    3.69993349425913    2.83432217578162
38
 energy: -62.916375865500 gnorm: 0.069319183248 xtb: 6.4.1 (afa7bdf)
c        -2.46515305931014    1.03541578763797   -0.92896608874746
c        -2.77956677727054    0.73447193902434    0.39625784582332
c        -1.91668382178088    1.13014225668048    1.41684565709865
c        -0.81729811276270    1.91759995002351    1.14187712931346
c        -0.59860684699501    2.38823663771440   -0.15385893342596
c        -1.42902796935933    1.91269812177966   -1.16810162495419
h        -1.32573200744360    2.19653625967251   -2.20429396474798
h        -2.13601850009389    0.88736788160706    2.44434764538070
h        -0.06626376741022    2.10092162080704    1.89586120065979
c         0.43769944116628    3.40168543482647   -0.35725778669562
h         0.88810333100794    3.39507773662106   -1.34372456768432
c         0.78897805574690    4.13079618868227    0.70910826447318
h        -3.00125113718264    0.62258123176799   -1.77043487651838
c        -4.07432784610544    0.03065582503403    0.53498138391902
o        -4.67890812406068    0.11574616304161    1.72308785456837
c        -6.07327473276933   -0.15287635073012    1.82277740478842
h        -6.19036581110893   -0.81986774744414    2.67267643311504
h        -6.49592986182698   -0.53169572505207    0.88978724228190
h        -6.53898298554688    0.80961959777947    2.04482486992931
o        -4.60542316881196   -0.49179163064001   -0.42381414785034
c         0.02342809632989    4.42228885847597    1.93471786505453
h         1.59992070525663    4.83291101842186    0.58610490341536
c        -1.39709976661395    4.76812684863760    1.64890255043423
o         0.61502841581300    4.74230148232925    2.95341661800915
c        -1.62035894046182    5.37695585556722    0.41295531266776
c        -2.84439457228719    5.96261842542821    0.15566355859993
c        -3.84279878036017    5.88380041253087    1.11396876446292
c        -3.65865849224553    5.15526467057334    2.28667478498964
c        -2.38142856148464    4.70777582917163    2.62540910632710
h        -2.15951182991351    4.30029515296082    3.59994500821109
h        -4.79126476914612    6.30512621213911    0.82214710008309
h        -0.74638976101433    5.41845418835740   -0.21754215112274
h        -2.95780109884529    6.49575275252844   -0.77623773410340
o        -4.69295016871446    5.07625587928124    3.15990548051833
c        -4.90008941900925    3.91672678963068    3.93870084050151
h        -5.85345702209048    3.51137340165419    3.58642907133795
h        -5.03188059597249    4.22164054305465    4.97519356806896
h        -4.11105531306586    3.16732950734226    3.82377631202335
38
 energy: -62.919179099983 gnorm: 0.075518778208 xtb: 6.4.1 (afa7bdf)
c        -2.48578136069328    1.40176325273505   -0.91616016858831
c        -3.08939876218631    1.20932603686038    0.32652071999852
c        -2.41787384888078    1.50767552164105    1.51090391400266
c        -1.14344893419376    2.03094800275560    1.43106996316911
c        -0.59858523375230    2.32256980885357    0.17953603625159
c        -1.26070766132975    2.02664700418030   -1.01145016879540
h        -0.80392136383408    2.40581195662458   -1.91284298671571
h        -2.94829909110846    1.36254891935492    2.43847863044022
h        -0.61637825013259    2.13431830856592    2.36790643018588
c         0.67645656826542    3.03587600863384    0.09097447481414
h         1.39266303699933    2.58414171090538   -0.58652720772188
c         1.02723233911974    4.20520862887552    0.64029535482515
h        -2.98872786708208    1.02453505517467   -1.79402520535925
c        -4.34876662066367    0.43619532651608    0.41178070393613
o        -5.10496540157465    0.78393356184182    1.45657555382791
c        -6.24908959900242   -0.03167476174572    1.68486749870324
h        -6.00445557688670   -1.07464515716340    1.86730422159094
h        -6.90418666515634    0.07246343044721    0.81733352356660
h        -6.72042727097442    0.35785565167478    2.58968492006506
o        -4.55046208118164   -0.55577879285310   -0.25874806388649
c         0.20409476761778    4.84421974058906    1.68301444011250
h         2.01583411203831    4.56591619297888    0.39888347669560
c        -1.24554837416160    5.10601575197674    1.46122296152761
o         0.66176711694390    4.98257158574335    2.80619787176532
c        -1.69464066685038    5.66942585431429    0.26582836371291
c        -3.04341943087631    5.60206266822835   -0.02351745632973
c        -3.91190866879221    5.01677347254706    0.88452171467957
c        -3.54042105899328    4.62189822871536    2.16747997920585
c        -2.18441347033356    4.80660340730297    2.43846148891612
h        -1.70150034942977    4.54540540491784    3.36775063028492
h        -4.94678350940431    4.87742199581839    0.61642045931420
h        -1.05578962491679    6.21339693533540   -0.41169368735062
h        -3.35862451296808    5.92149663895023   -1.00542426324408
o        -4.53909245331303    4.16529741686483    2.96290734474850
c        -4.41993200900231    3.62562134440987    4.26232534290492
h        -4.85439718496589    2.62136415319493    4.25741981670783
h        -5.06755493677195    4.18513638712029    4.93477307286129
h        -3.38339547854848    3.61202302306436    4.61273348356730
38
 energy: -62.918078025792 gnorm: 0.067537164218 xtb: 6.4.1 (afa7bdf)
c        -2.53717423831368    1.56345449381712   -0.90639740786227
c        -3.17044432321955    1.24461862009193    0.29483300603231
c        -2.57225027131008    1.48187309989183    1.53119696726987
c        -1.40860831590270    2.22064373398209    1.59829191557361
c        -0.77544987788768    2.59675063184209    0.41258080871238
c        -1.29953379963888    2.16193511593736   -0.80425772035659
h        -0.75790613409697    2.29172038892003   -1.72877058093701
h        -3.05607508755964    1.09582946497831    2.41419830984449
h        -0.88229486595926    2.41450141326485    2.52109461528093
c         0.56694487149011    3.17708686761918    0.35286008153802
h         1.21188273562604    2.70643254040243   -0.38100892288443
c         1.05756843169730    4.19273213591236    1.07389331236771
h        -2.98274807227644    1.19318600110137   -1.81758812081552
c        -4.47338751048545    0.54232001267087    0.30594464761974
o        -5.26433380389335    0.90110340577849    1.32085015564873
c        -6.47933282969952    0.20660040861773    1.58122926955331
h        -6.40521476591064   -0.77353941861826    1.11781947246362
h        -7.30997432609888    0.77182440444298    1.15324718316391
h        -6.58051449947525    0.07304700811440    2.66035552215250
o        -4.75711233087422   -0.26341120877873   -0.55695741107206
c         0.16664844648279    5.12898859234852    1.78300468616952
h         2.09216578688645    4.50134415130452    1.06440872952416
c        -1.23713802780142    5.03688652864243    1.29301055278157
o         0.41566320882204    5.81776210896598    2.75959506521247
c        -1.68729698732651    5.18302254068394   -0.02003321539761
c        -3.03941668047512    4.99151844347934   -0.22633702989541
c        -3.85669409658633    4.61956059909888    0.82963499989358
c        -3.35275508740496    4.32679072816904    2.09464189735089
c        -2.03138141471650    4.67734051581389    2.37283199871241
h        -1.59319768242432    4.53108410399080    3.34833787829332
h        -4.92422633344948    4.56736018371385    0.68852160074622
h        -1.06968333220622    5.54782154783115   -0.82535690309113
h        -3.55348929530887    4.98310370339985   -1.17564821291661
o        -4.20699345712536    3.81000213754954    3.01210563598772
c        -3.72618642690976    3.47007816110842    4.29554352975891
h        -3.19424303069644    2.51478207585679    4.33752154292559
h        -4.63086284121901    3.38612009113466    4.89485154841587
h        -3.10187547292725    4.23570443317151    4.76610806544272
38
 energy: -62.909740451993 gnorm: 0.074582672635 xtb: 6.4.1 (afa7bdf)
c        -2.48657568331116    1.55808158725002   -0.85018009949135
c        -3.08659812780015    1.07710842302997    0.31355506040066
c        -2.44626615726815    1.13796080989892    1.55007979523749
c        -1.25395482918879    1.82955785387071    1.61666401555368
c        -0.66343808257132    2.29195795266179    0.43949249641776
c        -1.21235384989265    2.08353808121500   -0.82529086978297
h        -0.68928568166704    2.38020686826287   -1.72156985200017
h        -2.76625777885779    0.62524390136674    2.44312747452804
h        -0.67377763290654    1.96712959813604    2.51700829839684
c         0.62963753659421    2.97150345397695    0.53197797335129
h         1.42285043873768    2.36877224206459    0.10354784241547
c         0.86481758834201    4.21868613559829    0.95784331863641
h        -2.95610058101889    1.38210728190870   -1.80646596099703
c        -4.45163511637726    0.53369510831956    0.13360075756416
o        -5.03456820628105    0.41724457257592    1.32983775551172
c        -6.45385039847263    0.52669817693363    1.32633458495540
h        -6.94824064980784    0.09156309889904    0.46195507065285
h        -6.75830120766987    1.57056764028177    1.42761819379779
h        -6.74214788646498   -0.01230563642674    2.23129157453584
o        -5.00425697699428    0.35528339120305   -0.93273914519596
c         0.10336482597297    5.33555833833228    1.54600963156854
h         1.91151685143300    4.48324659856031    0.97014821283667
c        -1.38130957909329    5.24570849079705    1.46316988912387
o         0.67968241679907    6.35513727065631    1.89019402846706
c        -1.80167787022270    5.05726082856349    0.14564918458682
c        -3.10128569355252    4.62259644829124   -0.02624959166929
c        -3.86316934083247    4.22369560251631    1.06084903429307
c        -3.41905086118260    4.45141428736973    2.36116215864333
c        -2.21022248462815    5.11621229877027    2.56872152107798
h        -1.93624353046796    5.50180781522184    3.53890670822471
h        -4.81327954473642    3.72365947066985    0.96329160872675
h        -1.15920483432356    5.27456383666220   -0.69284889016868
h        -3.44886558238236    4.47662128821475   -1.03788820710667
o        -4.30276473149317    3.91676834503667    3.23964773810169
c        -3.82656678155901    3.51461522033827    4.50670927295407
h        -2.74568473834291    3.34787304048180    4.54145982328008
h        -4.34791997702566    2.58881371786139    4.74280438293627
h        -4.07944656264916    4.24326608608087    5.28291702647683
38
 energy: -62.915404363693 gnorm: 0.073483903044 xtb: 6.4.1 (afa7bdf)
c        -2.21278375053190    1.41639283606395   -0.89136635637074
c        -2.94194620813709    1.11976222516712    0.26014323022268
c        -2.36845614491577    1.12483581910939    1.53049955200042
c        -1.07950090799795    1.61092398830248    1.61210343872645
c        -0.46951301176660    2.26459636333551    0.54024327653807
c        -1.01393345031712    2.07746797626810   -0.72980161449948
h        -0.45446735139464    2.45321584490505   -1.57285562769246
h        -2.95632078087010    0.75628557783986    2.35596515602781
h        -0.59970434713533    1.46810698265098    2.56894726398685
c         0.80421894004765    2.95713686058126    0.74117901861423
h         1.67026637387562    2.30699588119467    0.79864811388925
c         1.04225011605280    4.27176600420876    0.82619241366288
h        -2.64923136830089    1.13252629222809   -1.83732440823327
c        -4.38432025091112    0.88321346361066    0.02645611491790
o        -4.97216821025279    0.56327200275980    1.18249548934191
c        -6.39269784888326    0.47314386485316    1.20057325974564
h        -6.69425142470287    0.60830747334611    0.16533780314395
h        -6.83965427798556    1.24460199546369    1.83120344745796
h        -6.67183837714214   -0.52441309817286    1.54633095515698
o        -4.98987383505936    1.08824584068576   -1.00580798340754
c        -0.02333322804955    5.19122196159745    1.26469740675752
h         2.02722865148919    4.71286812513037    0.85732638292422
c        -1.43542722771042    4.71819155224546    1.30246716752118
o         0.16409705382797    6.33582261421034    1.64536189803197
c        -2.11563445860492    4.81059919318657    0.08720507470856
c        -3.46142967320966    4.50786167211206    0.01902779821625
c        -4.16665807938041    4.32052552109347    1.19755660202624
c        -3.51153152810262    4.27897953026484    2.42596796432496
c        -2.11711684880787    4.31900681251508    2.44354617019247
h        -1.46262614626151    4.21264617359496    3.29521340935325
h        -5.23116494481464    4.15874115782154    1.25153787428835
h        -1.54732645521991    5.15687999581602   -0.76143319108386
h        -4.00930797370514    4.45250622736578   -0.90957243867340
o        -4.30238561676398    4.09095597869558    3.51120085963456
c        -3.77209773485728    4.00029626813009    4.81677052827236
h        -2.78252279035162    4.46725589379343    4.81935697981048
h        -3.77128798863845    2.94708060597870    5.09135129177584
h        -4.41275982429957    4.63423212236144    5.43729947173491
38
 energy: -62.881278827280 gnorm: 0.076525034509 xtb: 6.4.1 (afa7bdf)
c        -2.05382114814604    1.88609108413105   -0.92193398079271
c        -2.84067152155858    1.56904535846283    0.18531047089822
c        -2.33088560707755    1.34361235683743    1.46281581135057
c        -0.98786287570597    1.55568986817362    1.69873832953553
c        -0.21631932748059    1.86895726692902    0.57854150012145
c        -0.68844449008027    1.90640977048359   -0.73299181850245
h        -0.05239145049381    2.02464044619296   -1.59692862679681
h        -3.01186424801875    1.08240025100507    2.25707258369776
h        -0.47519459330404    1.53689083176366    2.64898529376498
c         1.05458321213037    2.55665219513725    0.81148539522160
h         1.95508602538892    1.99354221488939    0.59233716808070
c         0.92256395175700    3.79351401640963    1.30633850376387
h        -2.58443781035054    2.16862377181146   -1.81888689752407
c        -4.27331387405508    1.27665755714198   -0.04502181484217
o        -4.78216147316127    0.75690605365366    1.07537419624863
c        -6.10067637501788    0.23633033755502    0.94547539741575