! Job execution by suborca V 5.02 !
Job started from clu.thch.uni-bonn.de, running /software/cluster/orca_5_0_2_linux_x86-64_openmpi411/orca from /software/cluster/orca_5_0_2_linux_x86-64_openmpi411 on boar228 in /tmp1/rothe/Aldol-OH__SqIkAx
Going to copy the following really necessary files:  

                                 *****************
                                 * O   R   C   A *
                                 *****************

                                            #,                                       
                                            ###                                      
                                            ####                                     
                                            #####                                    
                                            ######                                   
                                           ########,                                 
                                     ,,################,,,,,                         
                               ,,#################################,,                 
                          ,,##########################################,,             
                       ,#########################################, ''#####,          
                    ,#############################################,,   '####,        
                  ,##################################################,,,,####,       
                ,###########''''           ''''###############################       
              ,#####''   ,,,,##########,,,,          '''####'''          '####       
            ,##' ,,,,###########################,,,                        '##       
           ' ,,###''''                  '''############,,,                           
         ,,##''                                '''############,,,,        ,,,,,,###''
      ,#''                                            '''#######################'''  
     '                                                          ''''####''''         
             ,#######,   #######,   ,#######,      ##                                
            ,#'     '#,  ##    ##  ,#'     '#,    #''#        ######   ,####,        
            ##       ##  ##   ,#'  ##            #'  '#       #        #'  '#        
            ##       ##  #######   ##           ,######,      #####,   #    #        
            '#,     ,#'  ##    ##  '#,     ,#' ,#      #,         ##   #,  ,#        
             '#######'   ##     ##  '#######'  #'      '#     #####' # '####'        



                  #######################################################
                  #                        -***-                        #
                  #          Department of theory and spectroscopy      #
                  #    Directorship and core code : Frank Neese         #
                  #        Max Planck Institute fuer Kohlenforschung    #
                  #                Kaiser Wilhelm Platz 1               #
                  #                 D-45470 Muelheim/Ruhr               #
                  #                      Germany                        #
                  #                                                     #
                  #                  All rights reserved                #
                  #                        -***-                        #
                  #######################################################


                         Program Version 5.0.2 -  RELEASE  -


 With contributions from (in alphabetic order):
   Daniel Aravena         : Magnetic Suceptibility
   Michael Atanasov       : Ab Initio Ligand Field Theory (pilot matlab implementation)
   Alexander A. Auer      : GIAO ZORA, VPT2 properties, NMR spectrum
   Ute Becker             : Parallelization
   Giovanni Bistoni       : ED, misc. LED, open-shell LED, HFLD
   Martin Brehm           : Molecular dynamics
   Dmytro Bykov           : SCF Hessian
   Vijay G. Chilkuri      : MRCI spin determinant printing, contributions to CSF-ICE
   Dipayan Datta          : RHF DLPNO-CCSD density
   Achintya Kumar Dutta   : EOM-CC, STEOM-CC
   Dmitry Ganyushin       : Spin-Orbit,Spin-Spin,Magnetic field MRCI
   Miquel Garcia          : C-PCM and meta-GGA Hessian, CC/C-PCM, Gaussian charge scheme
   Yang Guo               : DLPNO-NEVPT2, F12-NEVPT2, CIM, IAO-localization
   Andreas Hansen         : Spin unrestricted coupled pair/coupled cluster methods
   Benjamin Helmich-Paris : MC-RPA, TRAH-SCF, COSX integrals
   Lee Huntington         : MR-EOM, pCC
   Robert Izsak           : Overlap fitted RIJCOSX, COSX-SCS-MP3, EOM
   Marcus Kettner         : VPT2
   Christian Kollmar      : KDIIS, OOCD, Brueckner-CCSD(T), CCSD density, CASPT2, CASPT2-K
   Simone Kossmann        : Meta GGA functionals, TD-DFT gradient, OOMP2, MP2 Hessian
   Martin Krupicka        : Initial AUTO-CI
   Lucas Lang             : DCDCAS
   Marvin Lechner         : AUTO-CI (C++ implementation), FIC-MRCC
   Dagmar Lenk            : GEPOL surface, SMD
   Dimitrios Liakos       : Extrapolation schemes; Compound Job, initial MDCI parallelization
   Dimitrios Manganas     : Further ROCIS development; embedding schemes
   Dimitrios Pantazis     : SARC Basis sets
   Anastasios Papadopoulos: AUTO-CI, single reference methods and gradients
   Taras Petrenko         : DFT Hessian,TD-DFT gradient, ASA, ECA, R-Raman, ABS, FL, XAS/XES, NRVS
   Peter Pinski           : DLPNO-MP2, DLPNO-MP2 Gradient
   Christoph Reimann      : Effective Core Potentials
   Marius Retegan         : Local ZFS, SOC
   Christoph Riplinger    : Optimizer, TS searches, QM/MM, DLPNO-CCSD(T), (RO)-DLPNO pert. Triples
   Tobias Risthaus        : Range-separated hybrids, TD-DFT gradient, RPA, STAB
   Michael Roemelt        : Original ROCIS implementation
   Masaaki Saitow         : Open-shell DLPNO-CCSD energy and density
   Barbara Sandhoefer     : DKH picture change effects
   Avijit Sen             : IP-ROCIS
   Kantharuban Sivalingam : CASSCF convergence, NEVPT2, FIC-MRCI
   Bernardo de Souza      : ESD, SOC TD-DFT
   Georgi Stoychev        : AutoAux, RI-MP2 NMR, DLPNO-MP2 response
   Willem Van den Heuvel  : Paramagnetic NMR
   Boris Wezisla          : Elementary symmetry handling
   Frank Wennmohs         : Technical directorship


 We gratefully acknowledge several colleagues who have allowed us to
 interface, adapt or use parts of their codes:
   Stefan Grimme, W. Hujo, H. Kruse, P. Pracht,  : VdW corrections, initial TS optimization,
                  C. Bannwarth, S. Ehlert          DFT functionals, gCP, sTDA/sTD-DF
   Ed Valeev, F. Pavosevic, A. Kumar             : LibInt (2-el integral package), F12 methods
   Garnet Chan, S. Sharma, J. Yang, R. Olivares  : DMRG
   Ulf Ekstrom                                   : XCFun DFT Library
   Mihaly Kallay                                 : mrcc  (arbitrary order and MRCC methods)
   Jiri Pittner, Ondrej Demel                    : Mk-CCSD
   Frank Weinhold                                : gennbo (NPA and NBO analysis)
   Christopher J. Cramer and Donald G. Truhlar   : smd solvation model
   Lars Goerigk                                  : TD-DFT with DH, B97 family of functionals
   V. Asgeirsson, H. Jonsson                     : NEB implementation
   FAccTs GmbH                                   : IRC, NEB, NEB-TS, DLPNO-Multilevel, CI-OPT
                                                   MM, QMMM, 2- and 3-layer-ONIOM, Crystal-QMMM,
                                                   LR-CPCM, SF, NACMEs, symmetry and pop. for TD-DFT,
                                                   nearIR, NL-DFT gradient (VV10), updates on ESD,
                                                   ML-optimized integration grids
   S Lehtola, MJT Oliveira, MAL Marques          : LibXC Library
   Liviu Ungur et al                             : ANISO software


 Your calculation uses the libint2 library for the computation of 2-el integrals
 For citations please refer to: http://libint.valeyev.net

 Your ORCA version has been built with support for libXC version: 5.1.0
 For citations please refer to: https://tddft.org/programs/libxc/

 This ORCA versions uses:
   CBLAS   interface :  Fast vector & matrix operations
   LAPACKE interface :  Fast linear algebra routines
   SCALAPACK package :  Parallel linear algebra routines
   Shared memory     :  Shared parallel matrices
   BLAS/LAPACK       :  OpenBLAS 0.3.15  USE64BITINT DYNAMIC_ARCH NO_AFFINITY Barcelona SINGLE_THREADED
        Core in use  :  Barcelona
   Copyright (c) 2011-2014, The OpenBLAS Project


Your calculation utilizes the atom-pairwise dispersion correction
with the Becke-Johnson damping scheme (D3BJ)
Cite in your paper:
S.Grimme, S.Ehrlich, L.Goerigk, J Comput Chem, (2011), 32, 1456–1465 
S.Grimme, J.Antony, S.Ehrlich and H.Krieg, J.Chem.Phys., 132, (2010), 154104 
   

================================================================================

----- Orbital basis set information -----
Your calculation utilizes the basis: def2-TZVP
   F. Weigend and R. Ahlrichs, Phys. Chem. Chem. Phys. 7, 3297 (2005).

----- AuxJ basis set information -----
Your calculation utilizes the auxiliary basis: def2/J
   F. Weigend, Phys. Chem. Chem. Phys. 8, 1057 (2006).

================================================================================
                                        WARNINGS
                       Please study these warnings very carefully!
================================================================================


WARNING: Geometry Optimization
  ===> : Switching off AutoStart
         For restart on a previous wavefunction, please use MOREAD

INFO   : the flag for use of the SHARK integral package has been found!

================================================================================
                                       INPUT FILE
================================================================================
NAME = Aldol-OH.inp
|  1> ! TPSS D3BJ def2-TZVP RI def2/J CPCM(THF)
|  2> ! Opt numfreq Pal4
|  3> 
|  4> * xyz 0 1
|  5> C        -2.56950946745473    2.30847948692777    0.09650459902578
|  6> C        -2.75432902054190    1.02802744745973    0.61222848588927
|  7> C        -1.67166046420603    0.16827239399531    0.72446229644111
|  8> C        -0.40370599515443    0.55546816308320    0.33982429061819
|  9> C        -0.20451800887304    1.83871852984074   -0.17736338729944
| 10> C        -1.29100028268401    2.69996111307643   -0.29535332699296
| 11> O        -3.54852378102489    3.23525515305943   -0.06469544161984
| 12> C        -4.86951830253424    2.90783979001898    0.32066987120590
| 13> H        -5.24978720491233    2.05408770446962   -0.24714764458150
| 14> H        -5.46330135395595    3.79023372324971    0.09018733058592
| 15> H        -4.92920589707969    2.69698315512801    1.39226971155921
| 16> C         1.11413018450754    2.33945447477920   -0.62586977303482
| 17> H        -1.14462123635616    3.69116617273048   -0.69593252185428
| 18> H        -3.72880838186813    0.69025087542871    0.92582801933915
| 19> H        -1.82996935829163   -0.82283516647191    1.12174487804491
| 20> H         0.41432462853031   -0.13837739495433    0.43474572070878
| 21> O         1.23120101032430    3.42698554718701   -1.16411502341866
| 22> C         2.31399716267631    1.44499400603729   -0.40282278567365
| 23> C         3.63768627971091    2.15957054348869   -0.75686052045143
| 24> O         3.70146979141442    2.48062687490819   -2.12562529503986
| 25> C         4.79441433909253    1.25838309638769   -0.39601079230870
| 26> H         3.69914493521348    3.08050954296375   -0.15322835951867
| 27> C         5.36054500004861    0.42422672829210   -1.35282844230504
| 28> H         2.98405703709486    3.10513824491430   -2.31022653894744
| 29> C         5.28421452645337    1.23446320654529    0.90626020328051
| 30> C         6.40207507380045   -0.42057312480704   -1.02195453763818
| 31> C         6.88957460846634   -0.44580194122561    0.28333891268444
| 32> C         6.32221343196811    0.39081176409256    1.24487846718056
| 33> H         4.85498400391268    1.88549781036143    1.65367293041343
| 34> H         4.98428718745631    0.46038854945292   -2.36281945872107
| 35> H         6.84278024547489   -1.06256676453447   -1.76777144640562
| 36> H         6.71474488124501    0.36515394591104    2.25041894296492
| 37> C         8.00137991107241   -1.33257446610321    0.68567569310060
| 38> O         8.41667086613494   -2.13099428500058   -0.30435142820526
| 39> C         9.48419208380083   -3.02605371568155   -0.00254582250919
| 40> H         9.21938759185036   -3.65415823194956    0.85078393477810
| 41> H        10.38958686205388   -2.46507759999059    0.23876964175513
| 42> H         9.62782230852433   -3.62657070253715   -0.89680167848015
| 43> O         8.49437202818048   -1.35313449066876    1.79543563495385
| 44> H         2.21032856015990    0.56454017144004   -1.04148017050655
| 45> H         2.34328990606947    1.11863670829497    0.63655479188183
| 46> *
| 47> 
| 48>                          ****END OF INPUT****
================================================================================

                       *****************************
                       * Geometry Optimization Run *
                       *****************************

Geometry optimization settings:
Update method            Update   .... BFGS
Choice of coordinates    CoordSys .... Z-matrix Internals
Initial Hessian          InHess   .... Almoef's Model

Convergence Tolerances:
Energy Change            TolE     ....  5.0000e-06 Eh
Max. Gradient            TolMAXG  ....  3.0000e-04 Eh/bohr
RMS Gradient             TolRMSG  ....  1.0000e-04 Eh/bohr
Max. Displacement        TolMAXD  ....  4.0000e-03 bohr
RMS Displacement         TolRMSD  ....  2.0000e-03 bohr
Strict Convergence                ....  False
------------------------------------------------------------------------------
                        ORCA OPTIMIZATION COORDINATE SETUP
------------------------------------------------------------------------------

The optimization will be done in new redundant internal coordinates
Making redundant internal coordinates   ...  (new redundants) done
Evaluating the initial hessian          ...  (Almloef) done
Evaluating the coordinates              ...  done
Calculating the B-matrix                .... done
Calculating the G-matrix                .... done
Diagonalizing the G-matrix              .... done
Small eigenvalue found = 1.128e-03
Small eigenvalue found = 3.422e-03
Small eigenvalue found = 1.176e-02
Small eigenvalue found = 1.329e-02
Small eigenvalue found = 1.854e-02
Small eigenvalue found = 2.250e-02
Small eigenvalue found = 2.567e-02
The first mode is                       ....   84
The number of degrees of freedom        ....  117

    -----------------------------------------------------------------
                    Redundant Internal Coordinates


    -----------------------------------------------------------------
         Definition                    Initial Value    Approx d2E/dq
    -----------------------------------------------------------------
      1. B(C   1,C   0)                  1.3927         0.618570   
      2. B(C   2,C   1)                  1.3871         0.631572   
      3. B(C   3,C   2)                  1.3804         0.647163   
      4. B(C   4,C   3)                  1.3978         0.607111   
      5. B(C   5,C   0)                  1.3933         0.617177   
      6. B(C   5,C   4)                  1.3914         0.621501   
      7. B(O   6,C   0)                  1.3577         0.630082   
      8. B(C   7,O   6)                  1.4145         0.511482   
      9. B(H   8,C   7)                  1.0936         0.355397   
     10. B(H   9,C   7)                  1.0883         0.362403   
     11. B(H  10,C   7)                  1.0938         0.355137   
     12. B(C  11,C   4)                  1.4801         0.448717   
     13. B(H  12,C   5)                  1.0791         0.374862   
     14. B(H  13,C   1)                  1.0780         0.376353   
     15. B(H  14,C   2)                  1.0794         0.374345   
     16. B(H  15,C   3)                  1.0768         0.377923   
     17. B(O  16,C  11)                  1.2191         1.048527   
     18. B(C  17,C  11)                  1.5131         0.397494   
     19. B(C  18,C  17)                  1.5454         0.353088   
     20. B(O  19,C  18)                  1.4074         0.525023   
     21. B(C  20,C  18)                  1.5101         0.401923   
     22. B(H  21,C  18)                  1.1028         0.343496   
     23. B(C  22,C  20)                  1.3899         0.625027   
     24. B(H  23,O  19)                  0.9689         0.503225   
     25. B(C  24,C  20)                  1.3915         0.621270   
     26. B(C  25,C  22)                  1.3813         0.645123   
     27. B(C  26,C  25)                  1.3936         0.616618   
     28. B(C  27,C  26)                  1.3951         0.613139   
     29. B(C  27,C  24)                  1.3798         0.648649   
     30. B(H  28,C  24)                  1.0801         0.373377   
     31. B(H  29,C  22)                  1.0784         0.375769   
     32. B(H  30,C  25)                  1.0782         0.375986   
     33. B(H  31,C  27)                  1.0797         0.373924   
     34. B(C  32,C  26)                  1.4780         0.452285   
     35. B(O  33,C  32)                  1.3379         0.677528   
     36. B(C  34,O  33)                  1.4254         0.491322   
     37. B(H  35,C  34)                  1.0922         0.357257   
     38. B(H  36,C  34)                  1.0921         0.357342   
     39. B(H  37,C  34)                  1.0867         0.364475   
     40. B(O  38,C  32)                  1.2145         1.066254   
     41. B(H  39,C  17)                  1.0926         0.356644   
     42. B(H  40,C  17)                  1.0898         0.360359   
     43. A(C   5,C   0,O   6)          115.8790         0.432124   
     44. A(C   1,C   0,C   5)          118.9617         0.433530   
     45. A(C   1,C   0,O   6)          125.1593         0.432299   
     46. A(C   2,C   1,H  13)          119.1988         0.356677   
     47. A(C   0,C   1,H  13)          121.0488         0.355420   
     48. A(C   0,C   1,C   2)          119.7523         0.435332   
     49. A(C   1,C   2,H  14)          118.9746         0.356353   
     50. A(C   3,C   2,H  14)          119.6564         0.357833   
     51. A(C   1,C   2,C   3)          121.3689         0.438893   
     52. A(C   2,C   3,H  15)          119.5030         0.358412   
     53. A(C   2,C   3,C   4)          119.4382         0.435778   
     54. A(C   4,C   3,H  15)          121.0565         0.354545   
     55. A(C   3,C   4,C  11)          123.3432         0.408194   
     56. A(C   3,C   4,C   5)          119.2311         0.432617   
     57. A(C   5,C   4,C  11)          117.4232         0.409891   
     58. A(C   0,C   5,C   4)          121.2469         0.433898   
     59. A(C   4,C   5,H  12)          119.6116         0.355466   
     60. A(C   0,C   5,H  12)          119.1414         0.355045   
     61. A(C   0,O   6,C   7)          118.8862         0.415135   
     62. A(H   9,C   7,H  10)          109.5136         0.290497   
     63. A(H   8,C   7,H   9)          109.4700         0.290530   
     64. A(H   8,C   7,H  10)          109.8296         0.289609   
     65. A(O   6,C   7,H  10)          111.2543         0.338798   
     66. A(O   6,C   7,H   9)          105.3181         0.339945   
     67. A(O   6,C   7,H   8)          111.3460         0.338839   
     68. A(O  16,C  11,C  17)          121.0836         0.437549   
     69. A(C   4,C  11,C  17)          117.5046         0.379017   
     70. A(C   4,C  11,O  16)          121.4096         0.447244   
     71. A(C  11,C  17,H  40)          109.8117         0.327687   
     72. A(H  39,C  17,H  40)          108.5848         0.290432   
     73. A(C  11,C  17,C  18)          111.8465         0.363703   
     74. A(C  18,C  17,H  40)          109.5086         0.321372   
     75. A(C  18,C  17,H  39)          108.6612         0.320827   
     76. A(C  11,C  17,H  39)          108.3577         0.327127   
     77. A(C  17,C  18,C  20)          108.9915         0.364393   
     78. A(C  17,C  18,O  19)          111.5383         0.379153   
     79. A(C  20,C  18,H  21)          108.9573         0.325704   
     80. A(O  19,C  18,H  21)          109.8345         0.338391   
     81. A(C  17,C  18,H  21)          107.9671         0.318865   
     82. A(O  19,C  18,C  20)          109.5014         0.387787   
     83. A(C  18,O  19,H  23)          107.3846         0.357736   
     84. A(C  22,C  20,C  24)          119.3774         0.434857   
     85. A(C  18,C  20,C  24)          120.2323         0.401965   
     86. A(C  18,C  20,C  22)          120.3754         0.402392   
     87. A(C  25,C  22,H  29)          120.5264         0.357872   
     88. A(C  20,C  22,H  29)          118.8485         0.355953   
     89. A(C  20,C  22,C  25)          120.6163         0.437819   
     90. A(C  27,C  24,H  28)          119.8451         0.357815   
     91. A(C  20,C  24,H  28)          119.8237         0.355204   
     92. A(C  20,C  24,C  27)          120.3293         0.437774   
     93. A(C  26,C  25,H  30)          119.6113         0.355171   
     94. A(C  22,C  25,H  30)          120.4411         0.357907   
     95. A(C  22,C  25,C  26)          119.9476         0.436752   
     96. A(C  27,C  26,C  32)          118.5616         0.409483   
     97. A(C  25,C  26,C  32)          121.9374         0.409893   
     98. A(C  25,C  26,C  27)          119.5004         0.432772   
     99. A(C  26,C  27,H  31)          118.6694         0.354499   
    100. A(C  24,C  27,H  31)          121.1017         0.357904   
    101. A(C  24,C  27,C  26)          120.2284         0.436735   
    102. A(C  26,C  32,O  38)          124.3509         0.449251   
    103. A(C  26,C  32,O  33)          112.9614         0.414111   
    104. A(O  33,C  32,O  38)          122.6866         0.480510   
    105. A(C  32,O  33,C  34)          116.7760         0.417535   
    106. A(H  36,C  34,H  37)          110.8617         0.291040   
    107. A(H  35,C  34,H  37)          110.9281         0.291029   
    108. A(O  33,C  34,H  37)          105.7680         0.337993   
    109. A(H  35,C  34,H  36)          108.8916         0.290127   
    110. A(O  33,C  34,H  36)          110.1894         0.336882   
    111. A(O  33,C  34,H  35)          110.1801         0.336868   
    112. D(H  13,C   1,C   0,O   6)     -0.0646         0.026469   
    113. D(H  13,C   1,C   0,C   5)    179.9914         0.026469   
    114. D(C   2,C   1,C   0,C   5)     -0.1221         0.026469   
    115. D(C   2,C   1,C   0,O   6)    179.8219         0.026469   
    116. D(H  14,C   2,C   1,H  13)      0.1603         0.027666   
    117. D(H  14,C   2,C   1,C   0)   -179.7283         0.027666   
    118. D(C   3,C   2,C   1,C   0)      0.2861         0.027666   
    119. D(C   3,C   2,C   1,H  13)   -179.8254         0.027666   
    120. D(H  15,C   3,C   2,C   1)   -179.6469         0.029143   
    121. D(H  15,C   3,C   2,H  14)      0.3675         0.029143   
    122. D(C   4,C   3,C   2,H  14)    179.8305         0.029143   
    123. D(C   4,C   3,C   2,C   1)     -0.1839         0.029143   
    124. D(C   5,C   4,C   3,H  15)    179.3760         0.025442   
    125. D(C  11,C   4,C   3,C   2)   -179.4935         0.025442   
    126. D(C   5,C   4,C   3,C   2)     -0.0784         0.025442   
    127. D(C  11,C   4,C   3,H  15)     -0.0391         0.025442   
    128. D(H  12,C   5,C   4,C  11)     -0.4097         0.026736   
    129. D(C   0,C   5,C   4,C  11)    179.6900         0.026736   
    130. D(C   0,C   5,C   4,C   3)      0.2404         0.026736   
    131. D(H  12,C   5,C   0,C   1)    179.9596         0.026343   
    132. D(H  12,C   5,C   4,C   3)   -179.8592         0.026736   
    133. D(H  12,C   5,C   0,O   6)      0.0105         0.026343   
    134. D(C   4,C   5,C   0,C   1)     -0.1395         0.026343   
    135. D(C   4,C   5,C   0,O   6)    179.9113         0.026343   
    136. D(C   7,O   6,C   0,C   5)   -179.5963         0.029197   
    137. D(C   7,O   6,C   0,C   1)      0.4581         0.029197   
    138. D(H  10,C   7,O   6,C   0)     61.9538         0.020715   
    139. D(H   9,C   7,O   6,C   0)   -179.4815         0.020715   
    140. D(H   8,C   7,O   6,C   0)    -60.9207         0.020715   
    141. D(O  16,C  11,C   4,C   5)     -5.0264         0.013727   
    142. D(O  16,C  11,C   4,C   3)    174.3986         0.013727   
    143. D(C  17,C  11,C   4,C   5)    175.5066         0.013727   
    144. D(C  17,C  11,C   4,C   3)     -5.0683         0.013727   
    145. D(H  40,C  17,C  11,C   4)    -51.1996         0.011733   
    146. D(H  39,C  17,C  11,O  16)   -112.2134         0.011733   
    147. D(H  39,C  17,C  11,C   4)     67.2554         0.011733   
    148. D(C  18,C  17,C  11,O  16)      7.5388         0.011733   
    149. D(H  40,C  17,C  11,O  16)    129.3317         0.011733   
    150. D(C  18,C  17,C  11,C   4)   -172.9924         0.011733   
    151. D(H  21,C  18,C  17,H  40)    -65.1744         0.010031   
    152. D(H  21,C  18,C  17,C  11)     56.7926         0.010031   
    153. D(C  20,C  18,C  17,H  40)     53.0408         0.010031   
    154. D(C  20,C  18,C  17,H  39)    -65.4184         0.010031   
    155. D(C  20,C  18,C  17,C  11)    175.0078         0.010031   
    156. D(O  19,C  18,C  17,H  40)    174.0640         0.010031   
    157. D(H  21,C  18,C  17,H  39)    176.3664         0.010031   
    158. D(O  19,C  18,C  17,H  39)     55.6049         0.010031   
    159. D(O  19,C  18,C  17,C  11)    -63.9690         0.010031   
    160. D(H  23,O  19,C  18,H  21)    -56.6075         0.021872   
    161. D(H  23,O  19,C  18,C  20)   -176.2186         0.021872   
    162. D(H  23,O  19,C  18,C  17)     63.0560         0.021872   
    163. D(C  24,C  20,C  18,H  21)     33.5425         0.011984   
    164. D(C  24,C  20,C  18,O  19)    153.6911         0.011984   
    165. D(C  24,C  20,C  18,C  17)    -84.0484         0.011984   
    166. D(C  22,C  20,C  18,H  21)   -147.8718         0.011984   
    167. D(C  22,C  20,C  18,O  19)    -27.7232         0.011984   
    168. D(C  22,C  20,C  18,C  17)     94.5373         0.011984   
    169. D(H  29,C  22,C  20,C  24)   -179.0914         0.027059   
    170. D(H  29,C  22,C  20,C  18)      2.3108         0.027059   
    171. D(C  25,C  22,C  20,C  24)     -0.1658         0.027059   
    172. D(C  25,C  22,C  20,C  18)   -178.7635         0.027059   
    173. D(C  27,C  24,C  20,C  22)      0.0059         0.026715   
    174. D(C  27,C  24,C  20,C  18)    178.6057         0.026715   
    175. D(H  28,C  24,C  20,C  22)    179.5015         0.026715   
    176. D(H  28,C  24,C  20,C  18)     -1.8987         0.026715   
    177. D(H  30,C  25,C  22,H  29)     -0.7532         0.028947   
    178. D(H  30,C  25,C  22,C  20)   -179.6608         0.028947   
    179. D(C  26,C  25,C  22,H  29)    179.2241         0.028947   
    180. D(C  26,C  25,C  22,C  20)      0.3165         0.028947   
    181. D(C  32,C  26,C  25,H  30)     -0.0482         0.026293   
    182. D(C  32,C  26,C  25,C  22)    179.9743         0.026293   
    183. D(C  27,C  26,C  25,H  30)    179.6720         0.026293   
    184. D(C  27,C  26,C  25,C  22)     -0.3055         0.026293   
    185. D(H  31,C  27,C  26,C  32)      0.1383         0.025979   
    186. D(H  31,C  27,C  26,C  25)   -179.5914         0.025979   
    187. D(C  24,C  27,C  26,C  32)    179.8773         0.025979   
    188. D(C  24,C  27,C  26,C  25)      0.1476         0.025979   
    189. D(H  31,C  27,C  24,H  28)      0.2386         0.029287   
    190. D(H  31,C  27,C  24,C  20)    179.7342         0.029287   
    191. D(C  26,C  27,C  24,H  28)   -179.4939         0.029287   
    192. D(C  26,C  27,C  24,C  20)      0.0016         0.029287   
    193. D(O  38,C  32,C  26,C  27)     -2.7058         0.013942   
    194. D(O  38,C  32,C  26,C  25)    177.0169         0.013942   
    195. D(O  33,C  32,C  26,C  27)    176.9390         0.013942   
    196. D(O  33,C  32,C  26,C  25)     -3.3383         0.013942   
    197. D(C  34,O  33,C  32,O  38)     -0.0667         0.034168   
    198. D(C  34,O  33,C  32,C  26)   -179.7183         0.034168   
    199. D(H  37,C  34,O  33,C  32)    176.1921         0.019065   
    200. D(H  36,C  34,O  33,C  32)    -63.9339         0.019065   
    201. D(H  35,C  34,O  33,C  32)     56.2439         0.019065   
    -----------------------------------------------------------------

Number of atoms                         .... 41
Number of degrees of freedom            .... 201

         *************************************************************
         *                GEOMETRY OPTIMIZATION CYCLE   1            *
         *************************************************************
---------------------------------
CARTESIAN COORDINATES (ANGSTROEM)
---------------------------------
  C     -2.569509    2.308479    0.096505
  C     -2.754329    1.028027    0.612228
  C     -1.671660    0.168272    0.724462
  C     -0.403706    0.555468    0.339824
  C     -0.204518    1.838719   -0.177363
  C     -1.291000    2.699961   -0.295353
  O     -3.548524    3.235255   -0.064695
  C     -4.869518    2.907840    0.320670
  H     -5.249787    2.054088   -0.247148
  H     -5.463301    3.790234    0.090187
  H     -4.929206    2.696983    1.392270
  C      1.114130    2.339454   -0.625870
  H     -1.144621    3.691166   -0.695933
  H     -3.728808    0.690251    0.925828
  H     -1.829969   -0.822835    1.121745
  H      0.414325   -0.138377    0.434746
  O      1.231201    3.426986   -1.164115
  C      2.313997    1.444994   -0.402823
  C      3.637686    2.159571   -0.756861
  O      3.701470    2.480627   -2.125625
  C      4.794414    1.258383   -0.396011
  H      3.699145    3.080510   -0.153228
  C      5.360545    0.424227   -1.352828
  H      2.984057    3.105138   -2.310227
  C      5.284215    1.234463    0.906260
  C      6.402075   -0.420573   -1.021955
  C      6.889575   -0.445802    0.283339
  C      6.322213    0.390812    1.244878
  H      4.854984    1.885498    1.653673
  H      4.984287    0.460389   -2.362819
  H      6.842780   -1.062567   -1.767771
  H      6.714745    0.365154    2.250419
  C      8.001380   -1.332574    0.685676
  O      8.416671   -2.130994   -0.304351
  C      9.484192   -3.026054   -0.002546
  H      9.219388   -3.654158    0.850784
  H     10.389587   -2.465078    0.238770
  H      9.627822   -3.626571   -0.896802
  O      8.494372   -1.353134    1.795436
  H      2.210329    0.564540   -1.041480
  H      2.343290    1.118637    0.636555

----------------------------
CARTESIAN COORDINATES (A.U.)
----------------------------
  NO LB      ZA    FRAG     MASS         X           Y           Z
   0 C     6.0000    0    12.011   -4.855669    4.362394    0.182367
   1 C     6.0000    0    12.011   -5.204928    1.942690    1.156944
   2 C     6.0000    0    12.011   -3.158980    0.317989    1.369035
   3 C     6.0000    0    12.011   -0.762894    1.049683    0.642175
   4 C     6.0000    0    12.011   -0.386483    3.474674   -0.335168
   5 C     6.0000    0    12.011   -2.439637    5.102187   -0.558137
   6 O     8.0000    0    15.999   -6.705738    6.113746   -0.122257
   7 C     6.0000    0    12.011   -9.202056    5.495021    0.605978
   8 H     1.0000    0     1.008   -9.920660    3.881663   -0.467041
   9 H     1.0000    0     1.008  -10.324143    7.162504    0.170429
  10 H     1.0000    0     1.008   -9.314849    5.096560    2.631008
  11 C     6.0000    0    12.011    2.105401    4.420928   -1.182722
  12 H     1.0000    0     1.008   -2.163021    6.975293   -1.315122
  13 H     1.0000    0     1.008   -7.046427    1.304385    1.749561
  14 H     1.0000    0     1.008   -3.458141   -1.554933    2.119791
  15 H     1.0000    0     1.008    0.782960   -0.261495    0.821550
  16 O     8.0000    0    15.999    2.326633    6.476064   -2.199859
  17 C     6.0000    0    12.011    4.372821    2.730643   -0.761225
  18 C     6.0000    0    12.011    6.874231    4.080997   -1.430259
  19 O     8.0000    0    15.999    6.994764    4.687705   -4.016850
  20 C     6.0000    0    12.011    9.060130    2.377999   -0.748352
  21 H     1.0000    0     1.008    6.990371    5.821319   -0.289560
  22 C     6.0000    0    12.011   10.129962    0.801672   -2.556475
  23 H     1.0000    0     1.008    5.639051    5.867861   -4.365695
  24 C     6.0000    0    12.011    9.985718    2.332797    1.712584
  25 C     6.0000    0    12.011   12.098169   -0.794768   -1.931214
  26 C     6.0000    0    12.011   13.019409   -0.842444    0.535433
  27 C     6.0000    0    12.011   11.947252    0.738527    2.352479
  28 H     1.0000    0     1.008    9.174590    3.563074    3.124989
  29 H     1.0000    0     1.008    9.418938    0.870008   -4.465082
  30 H     1.0000    0     1.008   12.930981   -2.007960   -3.340604
  31 H     1.0000    0     1.008   12.689029    0.690041    4.252675
  32 C     6.0000    0    12.011   15.120417   -2.518201    1.295739
  33 O     8.0000    0    15.999   15.905203   -4.026996   -0.575141
  34 C     6.0000    0    12.011   17.922526   -5.718413   -0.004811
  35 H     1.0000    0     1.008   17.422118   -6.905358    1.607749
  36 H     1.0000    0     1.008   19.633474   -4.658322    0.451209
  37 H     1.0000    0     1.008   18.193947   -6.853225   -1.694710
  38 O     8.0000    0    15.999   16.052037   -2.557054    3.392882
  39 H     1.0000    0     1.008    4.176916    1.066826   -1.968112
  40 H     1.0000    0     1.008    4.428176    2.113917    1.202914

--------------------------------
INTERNAL COORDINATES (ANGSTROEM)
--------------------------------
 C      0   0   0     0.000000000000     0.00000000     0.00000000
 C      1   0   0     1.392726398135     0.00000000     0.00000000
 C      2   1   0     1.387063943395   119.75229315     0.00000000
 C      3   2   1     1.380425838179   121.36894797     0.28606263
 C      4   3   2     1.397816315491   119.43823164   359.81609105
 C      5   4   3     1.391439594216   119.23114586   359.92163183
 O      1   2   3     1.357706748386   125.15927899   179.82188013
 C      7   1   2     1.414472965504   118.88624931     0.45814840
 H      8   7   1     1.093578434741   111.34600604   299.07925128
 H      8   7   1     1.088264474789   105.31812261   180.51850103
 H      8   7   1     1.093777558403   111.25426753    61.95377389
 C      5   4   3     1.480110645359   123.34323745   180.50647479
 H      6   5   4     1.079063476744   119.61159818   180.14076512
 H      2   1   3     1.077983165752   121.04877828   180.11353694
 H      3   2   1     1.079439369306   118.97464004   180.27174095
 H      4   3   2     1.076849960572   119.50300441   180.35313222
 O     12   5   4     1.219072336357   121.40958427   174.39860856
 C     12   5   4     1.513106160853   117.50461769   354.93165220
 C     18  12   5     1.545352783049   111.84646349   187.00756564
 O     19  18  12     1.407360121811   111.53827223   296.03103721
 C     19  18  12     1.510089780269   108.99152694   175.00777897
 H     19  18  12     1.102849759851   107.96712240    56.79260128
 C     21  19  18     1.389899560059   120.37539268    94.53731806
 H     20  19  18     0.968903055305   107.38455469    63.05596096
 C     21  19  18     1.391540919492   120.23231769   275.95160908
 C     23  21  19     1.381285353254   120.61626958   181.23648860
 C     26  23  21     1.393586481325   119.94763348     0.31650471
 C     25  21  19     1.379801367172   120.32926312   178.60565080
 H     25  21  19     1.080143824464   119.82373349   358.10129767
 H     23  21  19     1.078405986671   118.84854070     2.31080186
 H     26  23  21     1.078248460789   120.44111238   180.33917783
 H     28  25  21     1.079745762087   121.10173251   179.73416194
 C     27  26  23     1.477955150421   121.93742541   179.97429686
 O     33  27  26     1.337944126444   112.96144646   356.66170615
 C     34  33  27     1.425419081620   116.77599693   180.28170766
 H     35  34  33     1.092157670387   110.18007984    56.24389274
 H     35  34  33     1.092092972304   110.18938097   296.06607916
 H     35  34  33     1.086712394746   105.76800318   176.19210855
 O     33  27  26     1.214508571679   124.35091829   177.01692761
 H     18  12   5     1.092624999351   108.35774148    67.25538810
 H     18  12   5     1.089804064651   109.81166812   308.80044625

---------------------------
INTERNAL COORDINATES (A.U.)
---------------------------
 C      0   0   0     0.000000000000     0.00000000     0.00000000
 C      1   0   0     2.631871471958     0.00000000     0.00000000
 C      2   1   0     2.621170983254   119.75229315     0.00000000
 C      3   2   1     2.608626782346   121.36894797     0.28606263
 C      4   3   2     2.641490021804   119.43823164   359.81609105
 C      5   4   3     2.629439764963   119.23114586   359.92163183
 O      1   2   3     2.565693924626   125.15927899   179.82188013
 C      7   1   2     2.672966528638   118.88624931     0.45814840
 H      8   7   1     2.066563747623   111.34600604   299.07925128
 H      8   7   1     2.056521818628   105.31812261   180.51850103
 H      8   7   1     2.066940036810   111.25426753    61.95377389
 C      5   4   3     2.797003767630   123.34323745   180.50647479
 H      6   5   4     2.039134452164   119.61159818   180.14076512
 H      2   1   3     2.037092960248   121.04877828   180.11353694
 H      3   2   1     2.039844786161   118.97464004   180.27174095
 H      4   3   2     2.034951512806   119.50300441   180.35313222
 O     12   5   4     2.303712853154   121.40958427   174.39860856
 C     12   5   4     2.859356255562   117.50461769   354.93165220
 C     18  12   5     2.920293540256   111.84646349   187.00756564
 O     19  18  12     2.659525202025   111.53827223   296.03103721
 C     19  18  12     2.853656122342   108.99152694   175.00777897
 H     19  18  12     2.084084012979   107.96712240    56.79260128
 C     21  19  18     2.626529522170   120.37539268    94.53731806
 H     20  19  18     1.830961424846   107.38455469    63.05596096
 C     21  19  18     2.629631241986   120.23231769   275.95160908
 C     23  21  19     2.610251030448   120.61626958   181.23648860
 C     26  23  21     2.633496793640   119.94763348     0.31650471
 C     25  21  19     2.607446703165   120.32926312   178.60565080
 H     25  21  19     2.041176013483   119.82373349   358.10129767
 H     23  21  19     2.037891975989   118.84854070     2.31080186
 H     26  23  21     2.037594295214   120.44111238   180.33917783
 H     28  25  21     2.040423784607   121.10173251   179.73416194
 C     27  26  23     2.792930472514   121.93742541   179.97429686
 O     33  27  26     2.528347981468   112.96144646   356.66170615
 C     34  33  27     2.693651690328   116.77599693   180.28170766
 H     35  34  33     2.063878892093   110.18007984    56.24389274
 H     35  34  33     2.063756630435   110.18938097   296.06607916
 H     35  34  33     2.053588812408   105.76800318   176.19210855
 O     33  27  26     2.295088587774   124.35091829   177.01692761
 H     18  12   5     2.064762015849   108.35774148    67.25538810
 H     18  12   5     2.059431221825   109.81166812   308.80044625

---------------------
BASIS SET INFORMATION
---------------------
There are 3 groups of distinct atoms

 Group   1 Type C   : 11s6p2d1f contracted to 5s3p2d1f pattern {62111/411/11/1}
 Group   2 Type O   : 11s6p2d1f contracted to 5s3p2d1f pattern {62111/411/11/1}
 Group   3 Type H   : 5s1p contracted to 3s1p pattern {311/1}

Atom   0C    basis set group =>   1
Atom   1C    basis set group =>   1
Atom   2C    basis set group =>   1
Atom   3C    basis set group =>   1
Atom   4C    basis set group =>   1
Atom   5C    basis set group =>   1
Atom   6O    basis set group =>   2
Atom   7C    basis set group =>   1
Atom   8H    basis set group =>   3
Atom   9H    basis set group =>   3
Atom  10H    basis set group =>   3
Atom  11C    basis set group =>   1
Atom  12H    basis set group =>   3
Atom  13H    basis set group =>   3
Atom  14H    basis set group =>   3
Atom  15H    basis set group =>   3
Atom  16O    basis set group =>   2
Atom  17C    basis set group =>   1
Atom  18C    basis set group =>   1
Atom  19O    basis set group =>   2
Atom  20C    basis set group =>   1
Atom  21H    basis set group =>   3
Atom  22C    basis set group =>   1
Atom  23H    basis set group =>   3
Atom  24C    basis set group =>   1
Atom  25C    basis set group =>   1
Atom  26C    basis set group =>   1
Atom  27C    basis set group =>   1
Atom  28H    basis set group =>   3
Atom  29H    basis set group =>   3
Atom  30H    basis set group =>   3
Atom  31H    basis set group =>   3
Atom  32C    basis set group =>   1
Atom  33O    basis set group =>   2
Atom  34C    basis set group =>   1
Atom  35H    basis set group =>   3
Atom  36H    basis set group =>   3
Atom  37H    basis set group =>   3
Atom  38O    basis set group =>   2
Atom  39H    basis set group =>   3
Atom  40H    basis set group =>   3
---------------------------------
AUXILIARY/J BASIS SET INFORMATION
---------------------------------
There are 3 groups of distinct atoms

 Group   1 Type C   : 12s5p4d2f1g contracted to 6s4p3d1f1g pattern {711111/2111/211/2/1}
 Group   2 Type O   : 12s5p4d2f1g contracted to 6s4p3d1f1g pattern {711111/2111/211/2/1}
 Group   3 Type H   : 5s2p1d contracted to 3s1p1d pattern {311/2/1}

Atom   0C    basis set group =>   1
Atom   1C    basis set group =>   1
Atom   2C    basis set group =>   1
Atom   3C    basis set group =>   1
Atom   4C    basis set group =>   1
Atom   5C    basis set group =>   1
Atom   6O    basis set group =>   2
Atom   7C    basis set group =>   1
Atom   8H    basis set group =>   3
Atom   9H    basis set group =>   3
Atom  10H    basis set group =>   3
Atom  11C    basis set group =>   1
Atom  12H    basis set group =>   3
Atom  13H    basis set group =>   3
Atom  14H    basis set group =>   3
Atom  15H    basis set group =>   3
Atom  16O    basis set group =>   2
Atom  17C    basis set group =>   1
Atom  18C    basis set group =>   1
Atom  19O    basis set group =>   2
Atom  20C    basis set group =>   1
Atom  21H    basis set group =>   3
Atom  22C    basis set group =>   1
Atom  23H    basis set group =>   3
Atom  24C    basis set group =>   1
Atom  25C    basis set group =>   1
Atom  26C    basis set group =>   1
Atom  27C    basis set group =>   1
Atom  28H    basis set group =>   3
Atom  29H    basis set group =>   3
Atom  30H    basis set group =>   3
Atom  31H    basis set group =>   3
Atom  32C    basis set group =>   1
Atom  33O    basis set group =>   2
Atom  34C    basis set group =>   1
Atom  35H    basis set group =>   3
Atom  36H    basis set group =>   3
Atom  37H    basis set group =>   3
Atom  38O    basis set group =>   2
Atom  39H    basis set group =>   3
Atom  40H    basis set group =>   3


           ************************************************************
           *        Program running with 4 parallel MPI-processes     *
           *              working on a common directory               *
           ************************************************************
------------------------------------------------------------------------------
                           ORCA GTO INTEGRAL CALCULATION
                           -- RI-GTO INTEGRALS CHOSEN --
------------------------------------------------------------------------------
------------------------------------------------------------------------------
                   ___                                                        
                  /   \      - P O W E R E D   B Y -                         
                 /     \                                                     
                 |  |  |   _    _      __       _____    __    __             
                 |  |  |  | |  | |    /  \     |  _  \  |  |  /  |          
                  \  \/   | |  | |   /    \    | | | |  |  | /  /          
                 / \  \   | |__| |  /  /\  \   | |_| |  |  |/  /          
                |  |  |   |  __  | /  /__\  \  |    /   |      \           
                |  |  |   | |  | | |   __   |  |    \   |  |\   \          
                \     /   | |  | | |  |  |  |  | |\  \  |  | \   \       
                 \___/    |_|  |_| |__|  |__|  |_| \__\ |__|  \__/        
                                                                              
                      - O R C A' S   B I G   F R I E N D -                    
                                      &                                       
                       - I N T E G R A L  F E E D E R -                       
                                                                              
 v1 FN, 2020, v2 2021                                                         
------------------------------------------------------------------------------


Reading SHARK input file Aldol-OH.SHARKINP.tmp ... ok
----------------------
SHARK INTEGRAL PACKAGE
----------------------

Number of atoms                             ...     41
Number of basis functions                   ...    821
Number of shells                            ...    325
Maximum angular momentum                    ...      3
Integral batch strategy                     ... SHARK/LIBINT Hybrid
RI-J (if used) integral strategy            ... SPLIT-RIJ (Revised 2003 algorithm where possible)
Printlevel                                  ...      1
Contraction scheme used                     ... SEGMENTED contraction
Coulomb Range Separation                    ... NOT USED
Exchange Range Separation                   ... NOT USED
Finite Nucleus Model                        ... NOT USED
Auxiliary Coulomb fitting basis             ... AVAILABLE
   # of basis functions in Aux-J            ...   1325
   # of shells in Aux-J                     ...    435
   Maximum angular momentum in Aux-J        ...      4
Auxiliary J/K fitting basis                 ... NOT available
Auxiliary Correlation fitting basis         ... NOT available
Auxiliary 'external' fitting basis          ... NOT available
Integral threshold                          ...     2.500000e-11
Primitive cut-off                           ...     2.500000e-12
Primitive pair pre-selection threshold      ...     2.500000e-12

Calculating pre-screening integrals         ... done (  0.3 sec) Dimension = 325
Organizing shell pair data                  ... done (  0.6 sec)
Shell pair information
Total number of shell pairs                 ...     52975
Shell pairs after pre-screening             ...     30732
Total number of primitive shell pairs       ...    162156
Primitive shell pairs kept                  ...     63186
          la=0 lb=0:   8024 shell pairs
          la=1 lb=0:   8960 shell pairs
          la=1 lb=1:   2521 shell pairs
          la=2 lb=0:   4326 shell pairs
          la=2 lb=1:   2427 shell pairs
          la=2 lb=2:    601 shell pairs
          la=3 lb=0:   2036 shell pairs
          la=3 lb=1:   1157 shell pairs
          la=3 lb=2:    541 shell pairs
          la=3 lb=3:    139 shell pairs

Calculating one electron integrals          ... done (  0.2 sec)
Calculating RI/J V-Matrix + Cholesky decomp.... done (  0.3 sec)
Calculating Nuclear repulsion               ... done (  0.0 sec) ENN=   1744.434985997918 Eh

SHARK setup successfully completed in   2.3 seconds

Maximum memory used throughout the entire GTOINT-calculation: 51.9 MB


           ************************************************************
           *        Program running with 4 parallel MPI-processes     *
           *              working on a common directory               *
           ************************************************************
-------------------------------------------------------------------------------
                                 ORCA SCF
-------------------------------------------------------------------------------

------------
SCF SETTINGS
------------
Hamiltonian:
 Density Functional     Method          .... DFT(GTOs)
 Exchange Functional    Exchange        .... TPSS
 Correlation Functional Correlation     .... TPSS
 LDA part of GGA corr.  LDAOpt          .... PW91-LDA
 Gradients option       PostSCFGGA      .... off
   Density functional embedding theory  .... OFF
   NL short-range parameter             ....  5.000000
 RI-approximation to the Coulomb term is turned on
   Number of AuxJ basis functions       .... 1325


General Settings:
 Integral files         IntName         .... Aldol-OH
 Hartree-Fock type      HFTyp           .... RHF
 Total Charge           Charge          ....    0
 Multiplicity           Mult            ....    1
 Number of Electrons    NEL             ....  166
 Basis Dimension        Dim             ....  821
 Nuclear Repulsion      ENuc            ....   1744.4349859979 Eh

Convergence Acceleration:
 DIIS                   CNVDIIS         .... on
   Start iteration      DIISMaxIt       ....    12
   Startup error        DIISStart       ....  0.200000
   # of expansion vecs  DIISMaxEq       ....     5
   Bias factor          DIISBfac        ....   1.050
   Max. coefficient     DIISMaxC        ....  10.000
 Trust-Rad. Augm. Hess. CNVTRAH         .... auto
   Auto Start mean grad. ratio tolernc. ....  1.125000
   Auto Start start iteration           ....    20
   Auto Start num. interpolation iter.  ....    10
   Max. Number of Micro iterations      ....    16
   Max. Number of Macro iterations      .... Maxiter - #DIIS iter
   Number of Davidson start vectors     ....     2
   Converg. threshold I  (grad. norm)   ....   1.000e-05
   Converg. threshold II (energy diff.) ....   1.000e-08
   Grad. Scal. Fac. for Micro threshold ....   0.100
   Minimum threshold for Micro iter.    ....   0.010
   NR start threshold (gradient norm)   ....   0.001
   Initial trust radius                 ....   0.400
   Minimum AH scaling param. (alpha)    ....   1.000
   Maximum AH scaling param. (alpha)    .... 1000.000
   Orbital update algorithm             .... Taylor
   White noise on init. David. guess    .... on
   Maximum white noise                  ....   0.010
   Quad. conv. algorithm                .... NR
 SOSCF                  CNVSOSCF        .... on
   Start iteration      SOSCFMaxIt      ....   150
   Startup grad/error   SOSCFStart      ....  0.003300
 Level Shifting         CNVShift        .... on
   Level shift para.    LevelShift      ....    0.2500
   Turn off err/grad.   ShiftErr        ....    0.0010
 Zerner damping         CNVZerner       .... off
 Static damping         CNVDamp         .... on
   Fraction old density DampFac         ....    0.7000
   Max. Damping (<1)    DampMax         ....    0.9800
   Min. Damping (>=0)   DampMin         ....    0.0000
   Turn off err/grad.   DampErr         ....    0.1000
 Fernandez-Rico         CNVRico         .... off

SCF Procedure:
 Maximum # iterations   MaxIter         ....   125
 SCF integral mode      SCFMode         .... Direct
   Integral package                     .... SHARK and LIBINT hybrid scheme
 Reset frequency        DirectResetFreq ....    20
 Integral Threshold     Thresh          ....  2.500e-11 Eh
 Primitive CutOff       TCut            ....  2.500e-12 Eh

Convergence Tolerance:
 Convergence Check Mode ConvCheckMode   .... Total+1el-Energy
 Convergence forced     ConvForced      .... 0
 Energy Change          TolE            ....  1.000e-08 Eh
 1-El. energy change                    ....  1.000e-05 Eh
 Orbital Gradient       TolG            ....  1.000e-05
 Orbital Rotation angle TolX            ....  1.000e-05
 DIIS Error             TolErr          ....  5.000e-07


Diagonalization of the overlap matrix:
Smallest eigenvalue                        ... 6.833e-06
Time for diagonalization                   ...    0.505 sec
Threshold for overlap eigenvalues          ... 1.000e-08
Number of eigenvalues below threshold      ... 0
Time for construction of square roots      ...    0.324 sec
Total time needed                          ...    0.835 sec

Time for model grid setup =    1.338 sec

------------------------------
INITIAL GUESS: MODEL POTENTIAL
------------------------------
Loading Hartree-Fock densities                     ... done
Calculating cut-offs                               ... done
Initializing the effective Hamiltonian             ... done
Setting up the integral package (SHARK)            ... done
Starting the Coulomb interaction                   ... done (   2.1 sec)
Reading the grid                                   ... done
Mapping shells                                     ... done
Starting the XC term evaluation                    ... done (   1.4 sec)
  promolecular density results
     # of electrons  =    165.985572467
     EX              =   -138.207154661
     EC              =     -5.579566086
     EX+EC           =   -143.786720747
Transforming the Hamiltonian                       ... done (   0.3 sec)
Diagonalizing the Hamiltonian                      ... done (   0.5 sec)
Back transforming the eigenvectors                 ... done (   0.1 sec)
Now organizing SCF variables                       ... done
                      ------------------
                      INITIAL GUESS DONE (   5.8 sec)
                      ------------------
-------------------
DFT GRID GENERATION
-------------------

General Integration Accuracy     IntAcc      ... 4.388
Radial Grid Type                 RadialGrid  ... OptM3 with GC (2021)
Angular Grid (max. ang.)         AngularGrid ... 4 (Lebedev-302)
Angular grid pruning method      GridPruning ... 4 (adaptive)
Weight generation scheme         WeightScheme... Becke
Basis function cutoff            BFCut       ... 1.0000e-11
Integration weight cutoff        WCut        ... 1.0000e-14
Angular grids for H and He will be reduced by one unit
Partially contracted basis set               ... off
Rotationally invariant grid construction     ... off

Total number of grid points                  ...   195486
Total number of batches                      ...     3075
Average number of points per batch           ...       63
Average number of grid points per atom       ...     4768
Time for grid setup =    4.640 sec


--------------------
CPCM SOLVATION MODEL
--------------------
CPCM parameters:
  Epsilon                                         ...       7.2500
  Refrac                                          ...       1.4070
  Rsolv                                           ...       1.3000
  Surface type                                    ... GAUSSIAN VDW
  Epsilon function type                           ...         CPCM
Radii:
 Radius for C  used is    3.8550 Bohr (=   2.0400 Ang.)
 Radius for O  used is    3.4469 Bohr (=   1.8240 Ang.)
 Radius for H  used is    2.4944 Bohr (=   1.3200 Ang.)
Calculating surface                               ...        done! (  0.0s)
GEPOL surface points                              ...         2175
GEPOL Volume                                      ...    2500.2938
GEPOL Surface-area                                ...    1294.6836
Calculating surface distance matrix               ...        done! (  0.1s)
Performing Cholesky decomposition & store         ...        done! (  0.5s)
Overall time for CPCM initialization              ...                 0.7s
--------------
SCF ITERATIONS
--------------
ITER       Energy         Delta-E        Max-DP      RMS-DP      [F,P]     Damp
               ***  Starting incremental Fock matrix formation  ***
  0  -1072.9725242788   0.000000000000 0.25531453  0.00133581  0.2644246 0.7000
  1  -1073.2134489146  -0.240924635868 0.21914630  0.00117592  0.0893484 0.7000
                               ***Turning on DIIS***
  2  -1073.2977571184  -0.084308203729 0.23252446  0.00177629  0.0310493 0.0000
  3  -1073.4400366599  -0.142279541522 0.21027307  0.00099884  0.0469148 0.0000
  4  -1073.4689294093  -0.028892749464 0.04277677  0.00029958  0.0220271 0.0000
  5  -1073.4719078289  -0.002978419582 0.01972444  0.00013292  0.0071388 0.0000
                      *** Initiating the SOSCF procedure ***
                           *** Shutting down DIIS ***
                      *** Re-Reading the Fockian *** 
                      *** Removing any level shift *** 
ITER      Energy       Delta-E        Grad      Rot      Max-DP    RMS-DP
  6  -1073.47208699  -0.0001791601  0.000239  0.000239  0.007747  0.000044
               *** Restarting incremental Fock matrix formation ***
  7  -1073.47210403  -0.0000170399  0.000206  0.001061  0.002628  0.000025
  8  -1073.47209650   0.0000075285  0.000506  0.000821  0.003347  0.000013
  9  -1073.47210725  -0.0000107534  0.000081  0.000316  0.000785  0.000004
 10  -1073.47210646   0.0000007956  0.000158  0.000213  0.000740  0.000003
 11  -1073.47210745  -0.0000009897  0.000012  0.000072  0.000164  0.000001
 12  -1073.47210741   0.0000000395  0.000029  0.000050  0.000224  0.000001
 13  -1073.47210745  -0.0000000450  0.000004  0.000013  0.000273  0.000002
 14  -1073.47210746  -0.0000000034  0.000004  0.000009  0.000162  0.000001
                  ***Gradient check signals convergence***
              ***Rediagonalizing the Fockian in SOSCF/NRSCF***

               *****************************************************
               *                     SUCCESS                       *
               *           SCF CONVERGED AFTER  15 CYCLES          *
               *****************************************************


----------------
TOTAL SCF ENERGY
----------------

Total Energy       :        -1073.47210745 Eh          -29210.66109 eV

Components:
Nuclear Repulsion  :         1744.43498600 Eh           47468.48922 eV
Electronic Energy  :        -2817.90709345 Eh          -76679.15031 eV
One Electron Energy:        -4926.50641076 Eh         -134057.05477 eV
Two Electron Energy:         2108.59931731 Eh           57377.90446 eV
CPCM Dielectric    :           -0.02033727 Eh              -0.55341 eV

Virial components:
Potential Energy   :        -2142.91592702 Eh          -58311.70688 eV
Kinetic Energy     :         1069.44381957 Eh           29101.04580 eV
Virial Ratio       :            2.00376671


DFT components:
N(Alpha)           :       83.000078070607 electrons
N(Beta)            :       83.000078070607 electrons
N(Total)           :      166.000156141214 electrons
E(X)               :     -142.330319150938 Eh       
E(C)               :       -5.588324109090 Eh       
E(XC)              :     -147.918643260028 Eh       
DFET-embed. en.    :        0.000000000000 Eh       
CPCM Solvation Model Properties:
Surface-charge          :           -0.03273908
Charge-correction       :           -0.00011389 Eh              -0.00310 eV
Free-energy (cav+disp)  :  This term is not implemented in the current solvation scheme

---------------
SCF CONVERGENCE
---------------

  Last Energy change         ...    4.5536e-09  Tolerance :   1.0000e-08
  Last MAX-Density change    ...    1.7098e-04  Tolerance :   1.0000e-07
  Last RMS-Density change    ...    1.1309e-06  Tolerance :   5.0000e-09
  Last Orbital Gradient      ...    5.8251e-07  Tolerance :   1.0000e-05
  Last Orbital Rotation      ...    3.1806e-06  Tolerance :   1.0000e-05

             **** THE GBW FILE WAS UPDATED (Aldol-OH.gbw) ****
             **** DENSITY Aldol-OH.scfp WAS UPDATED ****
             **** ENERGY FILE WAS UPDATED (Aldol-OH.en.tmp) ****
             **** THE GBW FILE WAS UPDATED (Aldol-OH.gbw) ****
             **** DENSITY Aldol-OH.scfp WAS UPDATED ****
----------------
ORBITAL ENERGIES
----------------

  NO   OCC          E(Eh)            E(eV) 
   0   2.0000     -18.929225      -515.0904 
   1   2.0000     -18.920447      -514.8515 
   2   2.0000     -18.884534      -513.8743 
   3   2.0000     -18.881055      -513.7796 
   4   2.0000     -18.870005      -513.4789 
   5   2.0000     -10.107262      -275.0326 
   6   2.0000     -10.078535      -274.2509 
   7   2.0000     -10.053690      -273.5748 
   8   2.0000     -10.045962      -273.3645 
   9   2.0000     -10.036109      -273.0964 
  10   2.0000     -10.035588      -273.0822 
  11   2.0000     -10.003328      -272.2044 
  12   2.0000     -10.002465      -272.1809 
  13   2.0000     -10.002155      -272.1725 
  14   2.0000      -9.997517      -272.0463 
  15   2.0000      -9.996405      -272.0160 
  16   2.0000      -9.995783      -271.9991 
  17   2.0000      -9.995746      -271.9981 
  18   2.0000      -9.995656      -271.9956 
  19   2.0000      -9.993963      -271.9496 
  20   2.0000      -9.993840      -271.9462 
  21   2.0000      -9.992512      -271.9101 
  22   2.0000      -9.989129      -271.8180 
  23   2.0000      -1.040598       -28.3161 
  24   2.0000      -1.007343       -27.4112 
  25   2.0000      -0.989547       -26.9270 
  26   2.0000      -0.960097       -26.1256 
  27   2.0000      -0.951051       -25.8794 
  28   2.0000      -0.812429       -22.1073 
  29   2.0000      -0.809600       -22.0303 
  30   2.0000      -0.745381       -20.2829 
  31   2.0000      -0.724448       -19.7132 
  32   2.0000      -0.712247       -19.3812 
  33   2.0000      -0.702012       -19.1027 
  34   2.0000      -0.699255       -19.0277 
  35   2.0000      -0.671320       -18.2675 
  36   2.0000      -0.649036       -17.6612 
  37   2.0000      -0.621538       -16.9129 
  38   2.0000      -0.584934       -15.9169 
  39   2.0000      -0.569708       -15.5025 
  40   2.0000      -0.561907       -15.2903 
  41   2.0000      -0.551055       -14.9950 
  42   2.0000      -0.520082       -14.1522 
  43   2.0000      -0.513949       -13.9853 
  44   2.0000      -0.492578       -13.4037 
  45   2.0000      -0.482471       -13.1287 
  46   2.0000      -0.476532       -12.9671 
  47   2.0000      -0.452242       -12.3061 
  48   2.0000      -0.449015       -12.2183 
  49   2.0000      -0.442658       -12.0453 
  50   2.0000      -0.441324       -12.0090 
  51   2.0000      -0.435051       -11.8383 
  52   2.0000      -0.429475       -11.6866 
  53   2.0000      -0.421909       -11.4807 
  54   2.0000      -0.412001       -11.2111 
  55   2.0000      -0.407445       -11.0871 
  56   2.0000      -0.405318       -11.0293 
  57   2.0000      -0.400235       -10.8910 
  58   2.0000      -0.393843       -10.7170 
  59   2.0000      -0.386993       -10.5306 
  60   2.0000      -0.380981       -10.3670 
  61   2.0000      -0.375648       -10.2219 
  62   2.0000      -0.368915       -10.0387 
  63   2.0000      -0.368057       -10.0153 
  64   2.0000      -0.354999        -9.6600 
  65   2.0000      -0.340147        -9.2559 
  66   2.0000      -0.335552        -9.1308 
  67   2.0000      -0.334239        -9.0951 
  68   2.0000      -0.330176        -8.9846 
  69   2.0000      -0.326610        -8.8875 
  70   2.0000      -0.320557        -8.7228 
  71   2.0000      -0.308337        -8.3903 
  72   2.0000      -0.298110        -8.1120 
  73   2.0000      -0.295716        -8.0468 
  74   2.0000      -0.292832        -7.9684 
  75   2.0000      -0.271315        -7.3829 
  76   2.0000      -0.246226        -6.7001 
  77   2.0000      -0.243727        -6.6322 
  78   2.0000      -0.241854        -6.5812 
  79   2.0000      -0.239571        -6.5191 
  80   2.0000      -0.233125        -6.3436 
  81   2.0000      -0.221125        -6.0171 
  82   2.0000      -0.209064        -5.6889 
  83   0.0000      -0.095533        -2.5996 
  84   0.0000      -0.077300        -2.1034 
  85   0.0000      -0.041136        -1.1194 
  86   0.0000      -0.036595        -0.9958 
  87   0.0000       0.004187         0.1139 
  88   0.0000       0.015420         0.4196 
  89   0.0000       0.033202         0.9035 
  90   0.0000       0.041277         1.1232 
  91   0.0000       0.044884         1.2214 
  92   0.0000       0.051893         1.4121 
  93   0.0000       0.058056         1.5798 
  94   0.0000       0.060974         1.6592 
  95   0.0000       0.067215         1.8290 
  96   0.0000       0.074662         2.0317 
  97   0.0000       0.078367         2.1325 
  98   0.0000       0.087390         2.3780 
  99   0.0000       0.089218         2.4277 
 100   0.0000       0.093904         2.5553 
 101   0.0000       0.101053         2.7498 
 102   0.0000       0.102379         2.7859 
 103   0.0000       0.106069         2.8863 
 104   0.0000       0.109790         2.9875 
 105   0.0000       0.111578         3.0362 
 106   0.0000       0.116527         3.1709 
 107   0.0000       0.118553         3.2260 
 108   0.0000       0.120806         3.2873 
 109   0.0000       0.125253         3.4083 
 110   0.0000       0.130718         3.5570 
 111   0.0000       0.136881         3.7247 
 112   0.0000       0.142580         3.8798 
 113   0.0000       0.151687         4.1276 
 114   0.0000       0.162077         4.4103 
 115   0.0000       0.170914         4.6508 
 116   0.0000       0.172771         4.7013 
 117   0.0000       0.178233         4.8500 
 118   0.0000       0.183194         4.9850 
 119   0.0000       0.189331         5.1520 
 120   0.0000       0.194028         5.2798 
 121   0.0000       0.195432         5.3180 
 122   0.0000       0.198067         5.3897 
 123   0.0000       0.202851         5.5199 
 124   0.0000       0.207191         5.6380 
 125   0.0000       0.211349         5.7511 
 126   0.0000       0.211893         5.7659 
 127   0.0000       0.214692         5.8421 
 128   0.0000       0.218722         5.9517 
 129   0.0000       0.222820         6.0632 
 130   0.0000       0.223786         6.0895 
 131   0.0000       0.228723         6.2239 
 132   0.0000       0.233543         6.3550 
 133   0.0000       0.234763         6.3882 
 134   0.0000       0.238199         6.4817 
 135   0.0000       0.245047         6.6681 
 136   0.0000       0.250635         6.8201 
 137   0.0000       0.255735         6.9589 
 138   0.0000       0.265866         7.2346 
 139   0.0000       0.266981         7.2649 
 140   0.0000       0.274837         7.4787 
 141   0.0000       0.281454         7.6588 
 142   0.0000       0.287091         7.8121 
 143   0.0000       0.290600         7.9076 
 144   0.0000       0.293379         7.9832 
 145   0.0000       0.300650         8.1811 
 146   0.0000       0.302736         8.2379 
 147   0.0000       0.303634         8.2623 
 148   0.0000       0.308936         8.4066 
 149   0.0000       0.312503         8.5036 
 150   0.0000       0.316496         8.6123 
 151   0.0000       0.317765         8.6468 
 152   0.0000       0.325816         8.8659 
 153   0.0000       0.329198         8.9579 
 154   0.0000       0.332896         9.0586 
 155   0.0000       0.341305         9.2874 
 156   0.0000       0.343681         9.3520 
 157   0.0000       0.348563         9.4849 
 158   0.0000       0.351781         9.5725 
 159   0.0000       0.354559         9.6480 
 160   0.0000       0.357269         9.7218 
 161   0.0000       0.363727         9.8975 
 162   0.0000       0.367144         9.9905 
 163   0.0000       0.370045        10.0694 
 164   0.0000       0.379901        10.3376 
 165   0.0000       0.386958        10.5297 
 166   0.0000       0.388640        10.5754 
 167   0.0000       0.393148        10.6981 
 168   0.0000       0.393660        10.7120 
 169   0.0000       0.396652        10.7935 
 170   0.0000       0.404325        11.0022 
 171   0.0000       0.409008        11.1297 
 172   0.0000       0.410536        11.1712 
 173   0.0000       0.411179        11.1888 
 174   0.0000       0.420469        11.4416 
 175   0.0000       0.421947        11.4818 
 176   0.0000       0.424920        11.5627 
 177   0.0000       0.428753        11.6670 
 178   0.0000       0.430357        11.7106 
 179   0.0000       0.433156        11.7868 
 180   0.0000       0.436523        11.8784 
 181   0.0000       0.438650        11.9363 
 182   0.0000       0.447309        12.1719 
 183   0.0000       0.447825        12.1859 
 184   0.0000       0.449406        12.2290 
 185   0.0000       0.458209        12.4685 
 186   0.0000       0.460291        12.5252 
 187   0.0000       0.467389        12.7183 
 188   0.0000       0.469606        12.7786 
 189   0.0000       0.473662        12.8890 
 190   0.0000       0.474717        12.9177 
 191   0.0000       0.481532        13.1032 
 192   0.0000       0.484811        13.1924 
 193   0.0000       0.488985        13.3060 
 194   0.0000       0.494695        13.4613 
 195   0.0000       0.501226        13.6391 
 196   0.0000       0.508926        13.8486 
 197   0.0000       0.516746        14.0614 
 198   0.0000       0.525573        14.3016 
 199   0.0000       0.532148        14.4805 
 200   0.0000       0.535587        14.5741 
 201   0.0000       0.541160        14.7257 
 202   0.0000       0.548444        14.9239 
 203   0.0000       0.552195        15.0260 
 204   0.0000       0.569600        15.4996 
 205   0.0000       0.572204        15.5705 
 206   0.0000       0.579572        15.7710 
 207   0.0000       0.582436        15.8489 
 208   0.0000       0.590247        16.0614 
 209   0.0000       0.596488        16.2313 
 210   0.0000       0.605246        16.4696 
 211   0.0000       0.608830        16.5671 
 212   0.0000       0.611998        16.6533 
 213   0.0000       0.615723        16.7547 
 214   0.0000       0.622627        16.9425 
 215   0.0000       0.623635        16.9700 
 216   0.0000       0.627835        17.0843 
 217   0.0000       0.634613        17.2687 
 218   0.0000       0.640855        17.4385 
 219   0.0000       0.644741        17.5443 
 220   0.0000       0.647600        17.6221 
 221   0.0000       0.654739        17.8163 
 222   0.0000       0.659646        17.9499 
 223   0.0000       0.662236        18.0204 
 224   0.0000       0.671703        18.2780 
 225   0.0000       0.677249        18.4289 
 226   0.0000       0.678253        18.4562 
 227   0.0000       0.685645        18.6574 
 228   0.0000       0.696198        18.9445 
 229   0.0000       0.704034        19.1577 
 230   0.0000       0.707448        19.2506 
 231   0.0000       0.709977        19.3194 
 232   0.0000       0.717563        19.5259 
 233   0.0000       0.722447        19.6588 
 234   0.0000       0.730000        19.8643 
 235   0.0000       0.730236        19.8707 
 236   0.0000       0.739967        20.1355 
 237   0.0000       0.746106        20.3026 
 238   0.0000       0.749595        20.3975 
 239   0.0000       0.755617        20.5614 
 240   0.0000       0.758643        20.6437 
 241   0.0000       0.769335        20.9347 
 242   0.0000       0.781500        21.2657 
 243   0.0000       0.784360        21.3435 
 244   0.0000       0.786650        21.4058 
 245   0.0000       0.792515        21.5654 
 246   0.0000       0.803065        21.8525 
 247   0.0000       0.805667        21.9233 
 248   0.0000       0.810462        22.0538 
 249   0.0000       0.812183        22.1006 
 250   0.0000       0.822454        22.3801 
 251   0.0000       0.825539        22.4641 
 252   0.0000       0.836203        22.7542 
 253   0.0000       0.839214        22.8362 
 254   0.0000       0.845284        23.0013 
 255   0.0000       0.854975        23.2650 
 256   0.0000       0.864749        23.5310 
 257   0.0000       0.873792        23.7771 
 258   0.0000       0.874633        23.8000 
 259   0.0000       0.879872        23.9425 
 260   0.0000       0.884827        24.0774 
 261   0.0000       0.893627        24.3168 
 262   0.0000       0.898187        24.4409 
 263   0.0000       0.912046        24.8180 
 264   0.0000       0.921368        25.0717 
 265   0.0000       0.924514        25.1573 
 266   0.0000       0.927445        25.2371 
 267   0.0000       0.935791        25.4642 
 268   0.0000       0.949287        25.8314 
 269   0.0000       0.951847        25.9011 
 270   0.0000       0.962607        26.1939 
 271   0.0000       0.968058        26.3422 
 272   0.0000       0.973699        26.4957 
 273   0.0000       0.981172        26.6991 
 274   0.0000       0.989483        26.9252 
 275   0.0000       0.992033        26.9946 
 276   0.0000       0.998033        27.1579 
 277   0.0000       1.008013        27.4294 
 278   0.0000       1.028502        27.9870 
 279   0.0000       1.030483        28.0409 
 280   0.0000       1.044207        28.4143 
 281   0.0000       1.051547        28.6140 
 282   0.0000       1.053723        28.6733 
 283   0.0000       1.060897        28.8685 
 284   0.0000       1.068228        29.0680 
 285   0.0000       1.082749        29.4631 
 286   0.0000       1.085371        29.5344 
 287   0.0000       1.089235        29.6396 
 288   0.0000       1.102041        29.9881 
 289   0.0000       1.111971        30.2583 
 290   0.0000       1.116172        30.3726 
 291   0.0000       1.119556        30.4647 
 292   0.0000       1.139721        31.0134 
 293   0.0000       1.153250        31.3815 
 294   0.0000       1.167172        31.7604 
 295   0.0000       1.172930        31.9170 
 296   0.0000       1.185380        32.2558 
 297   0.0000       1.194946        32.5161 
 298   0.0000       1.203007        32.7355 
 299   0.0000       1.208048        32.8727 
 300   0.0000       1.218421        33.1549 
 301   0.0000       1.219234        33.1771 
 302   0.0000       1.221081        33.2273 
 303   0.0000       1.230437        33.4819 
 304   0.0000       1.236422        33.6448 
 305   0.0000       1.241485        33.7825 
 306   0.0000       1.248190        33.9650 
 307   0.0000       1.259926        34.2843 
 308   0.0000       1.263532        34.3825 
 309   0.0000       1.271783        34.6070 
 310   0.0000       1.286780        35.0151 
 311   0.0000       1.294318        35.2202 
 312   0.0000       1.302134        35.4329 
 313   0.0000       1.311596        35.6903 
 314   0.0000       1.319401        35.9027 
 315   0.0000       1.324850        36.0510 
 316   0.0000       1.332122        36.2489 
 317   0.0000       1.345180        36.6042 
 318   0.0000       1.352385        36.8003 
 319   0.0000       1.359416        36.9916 
 320   0.0000       1.368287        37.2330 
 321   0.0000       1.377502        37.4837 
 322   0.0000       1.400366        38.1059 
 323   0.0000       1.408473        38.3265 
 324   0.0000       1.410997        38.3952 
 325   0.0000       1.416936        38.5568 
 326   0.0000       1.419840        38.6358 
 327   0.0000       1.429950        38.9109 
 328   0.0000       1.433644        39.0114 
 329   0.0000       1.443039        39.2671 
 330   0.0000       1.444392        39.3039 
 331   0.0000       1.451471        39.4965 
 332   0.0000       1.456449        39.6320 
 333   0.0000       1.463977        39.8368 
 334   0.0000       1.467529        39.9335 
 335   0.0000       1.474181        40.1145 
 336   0.0000       1.479966        40.2719 
 337   0.0000       1.485694        40.4278 
 338   0.0000       1.490335        40.5541 
 339   0.0000       1.502804        40.8934 
 340   0.0000       1.508116        41.0379 
 341   0.0000       1.514419        41.2094 
 342   0.0000       1.516575        41.2681 
 343   0.0000       1.526085        41.5269 
 344   0.0000       1.537428        41.8355 
 345   0.0000       1.540319        41.9142 
 346   0.0000       1.548287        42.1310 
 347   0.0000       1.554751        42.3069 
 348   0.0000       1.556940        42.3665 
 349   0.0000       1.560148        42.4538 
 350   0.0000       1.566595        42.6292 
 351   0.0000       1.573480        42.8166 
 352   0.0000       1.576615        42.9019 
 353   0.0000       1.579603        42.9832 
 354   0.0000       1.589074        43.2409 
 355   0.0000       1.600405        43.5492 
 356   0.0000       1.605804        43.6961 
 357   0.0000       1.615692        43.9652 
 358   0.0000       1.616910        43.9984 
 359   0.0000       1.621510        44.1235 
 360   0.0000       1.634008        44.4636 
 361   0.0000       1.642428        44.6927 
 362   0.0000       1.644877        44.7594 
 363   0.0000       1.660797        45.1926 
 364   0.0000       1.662672        45.2436 
 365   0.0000       1.680799        45.7369 
 366   0.0000       1.690297        45.9953 
 367   0.0000       1.695655        46.1411 
 368   0.0000       1.701098        46.2892 
 369   0.0000       1.710386        46.5420 
 370   0.0000       1.716904        46.7193 
 371   0.0000       1.727079        46.9962 
 372   0.0000       1.734020        47.1851 
 373   0.0000       1.745891        47.5081 
 374   0.0000       1.758983        47.8644 
 375   0.0000       1.772377        48.2288 
 376   0.0000       1.778042        48.3830 
 377   0.0000       1.785493        48.5857 
 378   0.0000       1.791588        48.7516 
 379   0.0000       1.805437        49.1284 
 380   0.0000       1.817624        49.4601 
 381   0.0000       1.824763        49.6543 
 382   0.0000       1.835445        49.9450 
 383   0.0000       1.837437        49.9992 
 384   0.0000       1.844572        50.1934 
 385   0.0000       1.854452        50.4622 
 386   0.0000       1.872352        50.9493 
 387   0.0000       1.875818        51.0436 
 388   0.0000       1.883637        51.2564 
 389   0.0000       1.886897        51.3451 
 390   0.0000       1.902811        51.7781 
 391   0.0000       1.907916        51.9170 
 392   0.0000       1.917830        52.1868 
 393   0.0000       1.923383        52.3379 
 394   0.0000       1.937117        52.7116 
 395   0.0000       1.943250        52.8785 
 396   0.0000       1.952176        53.1214 
 397   0.0000       1.954009        53.1713 
 398   0.0000       1.964913        53.4680 
 399   0.0000       1.975751        53.7629 
 400   0.0000       1.977213        53.8027 
 401   0.0000       1.986040        54.0429 
 402   0.0000       1.987131        54.0726 
 403   0.0000       1.995834        54.3094 
 404   0.0000       2.015572        54.8465 
 405   0.0000       2.019142        54.9436 
 406   0.0000       2.022028        55.0222 
 407   0.0000       2.036649        55.4200 
 408   0.0000       2.043351        55.6024 
 409   0.0000       2.046564        55.6898 
 410   0.0000       2.061185        56.0877 
 411   0.0000       2.066058        56.2203 
 412   0.0000       2.071340        56.3640 
 413   0.0000       2.085626        56.7528 
 414   0.0000       2.097431        57.0740 
 415   0.0000       2.104911        57.2775 
 416   0.0000       2.111099        57.4459 
 417   0.0000       2.116993        57.6063 
 418   0.0000       2.130035        57.9612 
 419   0.0000       2.134663        58.0871 
 420   0.0000       2.141458        58.2720 
 421   0.0000       2.149020        58.4778 
 422   0.0000       2.162428        58.8427 
 423   0.0000       2.174343        59.1669 
 424   0.0000       2.189179        59.5706 
 425   0.0000       2.211049        60.1657 
 426   0.0000       2.216039        60.3015 
 427   0.0000       2.230861        60.7048 
 428   0.0000       2.231726        60.7283 
 429   0.0000       2.235510        60.8313 
 430   0.0000       2.247924        61.1691 
 431   0.0000       2.253791        61.3288 
 432   0.0000       2.257425        61.4277 
 433   0.0000       2.258554        61.4584 
 434   0.0000       2.265149        61.6378 
 435   0.0000       2.278607        62.0041 
 436   0.0000       2.289624        62.3038 
 437   0.0000       2.299378        62.5693 
 438   0.0000       2.308087        62.8062 
[...]
 21:    229.13   0.001530    7.73  0.002084  ( 0.013469  0.039436 -0.018645)
 22:    244.91   0.000108    0.55  0.000138  ( 0.001415  0.008596  0.007851)
 23:    260.90   0.000218    1.10  0.000261  ( 0.003088  0.001707  0.015771)
 24:    270.65   0.000974    4.92  0.001123  (-0.012144 -0.016291  0.026649)
 25:    289.14   0.003991   20.17  0.004307  ( 0.064151  0.001246 -0.013799)
 26:    313.12   0.006021   30.43  0.006001  (-0.047898  0.045001  0.041008)
 27:    357.38   0.000633    3.20  0.000553  ( 0.023234 -0.003042 -0.001871)
 28:    400.77   0.000371    1.87  0.000289  ( 0.010650 -0.012257  0.005022)
 29:    404.81   0.000633    3.20  0.000488  ( 0.012001 -0.016226  0.009001)
 30:    418.73   0.001185    5.99  0.000883  (-0.021375  0.004864 -0.020070)
 31:    428.56   0.000432    2.18  0.000315  ( 0.013802 -0.005450 -0.009716)
 32:    470.80   0.003196   16.15  0.002119  ( 0.031523 -0.021086  0.026080)
 33:    480.78   0.000585    2.96  0.000380  (-0.006471 -0.018373  0.000643)
 34:    491.59   0.000177    0.89  0.000112  ( 0.006096 -0.008181  0.002856)
 35:    512.58   0.001263    6.38  0.000769  ( 0.001527 -0.014065 -0.023846)
 36:    548.41   0.002161   10.92  0.001230  ( 0.016738  0.018873 -0.024356)
 37:    557.62   0.010104   51.06  0.005654  (-0.035690 -0.066066 -0.004002)
 38:    562.94   0.036978  186.87  0.020499  (-0.112808 -0.087815 -0.007846)
 39:    600.31   0.001346    6.80  0.000700  ( 0.025489 -0.006984 -0.001166)
 40:    629.23   0.000336    1.70  0.000167  (-0.009039  0.002078  0.008988)
 41:    646.15   0.001281    6.48  0.000619  (-0.011739 -0.017892  0.012685)
 42:    667.33   0.000922    4.66  0.000431  (-0.011029 -0.002209  0.017455)
 43:    684.34   0.006346   32.07  0.002894  ( 0.003803  0.022028  0.048928)
 44:    704.93   0.007590   38.36  0.003360  (-0.035281 -0.043453  0.015069)
 45:    740.48   0.009137   46.17  0.003851  ( 0.057312 -0.008462  0.022234)
 46:    765.37   0.006672   33.72  0.002720  (-0.022276 -0.045835  0.011105)
 47:    777.34   0.010399   52.55  0.004175  ( 0.006721  0.035779  0.053381)
 48:    802.53   0.003630   18.35  0.001412  ( 0.015600 -0.007242 -0.033403)
 49:    831.06   0.003413   17.25  0.001282  ( 0.031864 -0.012055  0.011003)
 50:    845.73   0.002154   10.89  0.000795  (-0.006944  0.027316 -0.000636)
 51:    847.20   0.003735   18.87  0.001376  ( 0.002215 -0.036292  0.007321)
 52:    870.99   0.006763   34.18  0.002423  ( 0.038318  0.027320 -0.014442)
 53:    878.78   0.002965   14.98  0.001053  (-0.019218  0.020309 -0.016461)
 54:    887.71   0.002393   12.09  0.000841  ( 0.004975  0.024320  0.014996)
 55:    908.19   0.007040   35.58  0.002419  ( 0.006074  0.004812 -0.048570)
 56:    949.28   0.004999   25.26  0.001643  ( 0.025425 -0.020178  0.024287)
 57:    964.02   0.000030    0.15  0.000010  (-0.000650 -0.000996  0.002864)
 58:    971.82   0.000017    0.08  0.000005  ( 0.000728  0.002042 -0.000779)
 59:    975.33   0.000691    3.49  0.000221  ( 0.014427 -0.003600  0.000046)
 60:    991.59   0.011534   58.29  0.003630  ( 0.058940  0.000096 -0.012488)
 61:    998.08   0.035617  179.99  0.011136  ( 0.102886 -0.015407 -0.017692)
 62:   1014.04   0.012301   62.16  0.003786  ( 0.048796 -0.016320  0.033737)
 63:   1020.25   0.003420   17.29  0.001046  (-0.011598  0.024943  0.017016)
 64:   1037.53   0.010303   52.07  0.003099  ( 0.035301  0.015625 -0.040106)
 65:   1055.24   0.009813   49.59  0.002902  (-0.004521 -0.015278  0.051461)
 66:   1095.18   0.053647  271.11  0.015286  (-0.084549  0.083769  0.033476)
 67:   1107.38   0.001010    5.11  0.000285  ( 0.007728  0.013636 -0.006246)
 68:   1110.99   0.000572    2.89  0.000161  (-0.000118  0.002260 -0.012471)
 69:   1148.38   0.000330    1.67  0.000090  ( 0.001301  0.000878  0.009335)
 70:   1149.74   0.000310    1.57  0.000084  (-0.004947 -0.007692  0.000756)
 71:   1155.26   0.013135   66.38  0.003548  (-0.027241 -0.042768  0.031256)
 72:   1167.99   0.026284  132.83  0.007023  ( 0.067607 -0.030987 -0.038623)
 73:   1179.57   0.001150    5.81  0.000304  ( 0.012712  0.009942 -0.006613)
 74:   1186.93   0.002402   12.14  0.000631  ( 0.005359  0.024540  0.000730)
 75:   1187.52   0.016336   82.56  0.004293  (-0.034445  0.052667 -0.018238)
 76:   1191.42   0.026192  132.37  0.006860  (-0.046771 -0.009964  0.067628)
 77:   1196.09   0.013546   68.45  0.003534  (-0.037169 -0.032866  0.032748)
 78:   1228.30   0.011350   57.36  0.002884  (-0.046696 -0.003269  0.026313)
 79:   1248.80   0.108841  550.04  0.027198  ( 0.158660 -0.041826 -0.016614)
 80:   1256.65   0.118277  597.72  0.029372  (-0.125052  0.112940  0.031276)
 81:   1294.96   0.006174   31.20  0.001488  (-0.034690  0.016825 -0.001208)
 82:   1316.87   0.002704   13.67  0.000641  (-0.012955  0.020405 -0.007522)
 83:   1321.93   0.028324  143.14  0.006686  ( 0.072261 -0.030512  0.023099)
 84:   1341.60   0.007808   39.46  0.001816  ( 0.041623 -0.003112 -0.008602)
 85:   1351.50   0.003327   16.81  0.000768  (-0.025916 -0.004306  0.008830)
 86:   1358.63   0.005191   26.23  0.001192  (-0.024420 -0.019629  0.014512)
 87:   1397.27   0.020827  105.25  0.004651  ( 0.059959 -0.020654 -0.025094)
 88:   1415.12   0.008507   42.99  0.001876  ( 0.024173  0.007043 -0.035242)
 89:   1422.23   0.007064   35.70  0.001550  (-0.021918 -0.031018  0.010370)
 90:   1442.09   0.028100  142.01  0.006081  (-0.073886  0.024930 -0.000385)
 91:   1448.02   0.006057   30.61  0.001305  ( 0.027298 -0.022362  0.007758)
 92:   1458.12   0.008662   43.77  0.001854  (-0.041588 -0.004326  0.010273)
 93:   1467.03   0.002076   10.49  0.000441  ( 0.012063  0.016941 -0.003001)
 94:   1476.38   0.002109   10.66  0.000446  (-0.003834 -0.010134 -0.018121)
 95:   1476.94   0.002229   11.26  0.000471  (-0.008316  0.010013  0.017363)
 96:   1488.38   0.002439   12.33  0.000511  ( 0.015779 -0.015253  0.005454)
 97:   1493.24   0.010913   55.15  0.002281  ( 0.036414 -0.029948  0.007597)
 98:   1516.18   0.000694    3.51  0.000143  (-0.001902  0.002638 -0.011500)
 99:   1577.55   0.005152   26.03  0.001019  (-0.017256  0.015977 -0.021588)
100:   1581.50   0.027611  139.53  0.005448  ( 0.038251 -0.059353  0.021500)
101:   1598.57   0.021683  109.58  0.004233  ( 0.007908  0.055750 -0.032592)
102:   1615.88   0.020001  101.08  0.003863  ( 0.044729 -0.036183  0.023512)
103:   1640.02   0.049824  251.79  0.009481  ( 0.048091  0.068969 -0.049103)
104:   1673.38   0.100063  505.68  0.018660  (-0.057394  0.019197 -0.122465)
105:   2959.97   0.010316   52.13  0.001088  ( 0.001879  0.023266  0.023297)
106:   2989.41   0.012288   62.10  0.001283  ( 0.033660  0.007097 -0.009969)
107:   2998.65   0.004075   20.59  0.000424  (-0.019841 -0.005512  0.000078)
108:   3023.88   0.007315   36.97  0.000755  (-0.020699  0.017833 -0.002913)
109:   3048.87   0.001686    8.52  0.000173  (-0.003329 -0.000589  0.012695)
110:   3054.60   0.009250   46.75  0.000945  (-0.005270 -0.013186 -0.027265)
111:   3099.07   0.005480   27.69  0.000552  (-0.015156 -0.017499  0.003986)
112:   3118.53   0.005281   26.69  0.000528  ( 0.012909 -0.017788  0.006739)
113:   3130.99   0.002404   12.15  0.000240  ( 0.008370 -0.009917 -0.008441)
114:   3133.58   0.003903   19.72  0.000389  (-0.003318  0.006713  0.018237)
115:   3144.20   0.002221   11.22  0.000220  ( 0.002459  0.012977 -0.006781)
116:   3160.66   0.000281    1.42  0.000028  ( 0.003290 -0.001238  0.003928)
117:   3161.52   0.001517    7.67  0.000150  (-0.002060  0.004918  0.011013)
118:   3165.01   0.001654    8.36  0.000163  (-0.011801  0.004882  0.000082)
119:   3173.01   0.001483    7.49  0.000146  ( 0.010618 -0.005732  0.000482)
120:   3174.78   0.001459    7.37  0.000143  (-0.001738  0.003493  0.011322)
121:   3175.97   0.000803    4.06  0.000079  ( 0.002096  0.007547 -0.004184)
122:   3541.07   0.066664  336.89  0.005875  (-0.072687  0.024301  0.000974)

* The epsilon (eps) is given for a Dirac delta lineshape.
** The dipole moment derivative (T) already includes vibrational overlap.

The first frequency considered to be a vibration is 6
The total number of vibrations considered is 117


--------------------------
THERMOCHEMISTRY AT 298.15K
--------------------------

Temperature         ... 298.15 K
Pressure            ... 1.00 atm
Total Mass          ... 314.34 AMU

Throughout the following assumptions are being made:
  (1) The electronic state is orbitally nondegenerate
  (2) There are no thermally accessible electronically excited states
  (3) Hindered rotations indicated by low frequency modes are not
      treated as such but are treated as vibrations and this may
      cause some error
  (4) All equations used are the standard statistical mechanics
      equations for an ideal gas
  (5) All vibrations are strictly harmonic

freq.       9.52  E(vib)   ...       0.58 
freq.      13.49  E(vib)   ...       0.57 
freq.      24.99  E(vib)   ...       0.56 
freq.      41.10  E(vib)   ...       0.54 
freq.      48.72  E(vib)   ...       0.53 
freq.      73.18  E(vib)   ...       0.49 
freq.      80.92  E(vib)   ...       0.48 
freq.      83.65  E(vib)   ...       0.48 
freq.     115.47  E(vib)   ...       0.44 
freq.     124.60  E(vib)   ...       0.43 
freq.     138.94  E(vib)   ...       0.42 
freq.     156.67  E(vib)   ...       0.40 
freq.     162.59  E(vib)   ...       0.39 
freq.     200.69  E(vib)   ...       0.35 
freq.     204.56  E(vib)   ...       0.35 
freq.     229.13  E(vib)   ...       0.32 
freq.     244.91  E(vib)   ...       0.31 
freq.     260.90  E(vib)   ...       0.30 
freq.     270.65  E(vib)   ...       0.29 
freq.     289.14  E(vib)   ...       0.27 
freq.     313.12  E(vib)   ...       0.25 
freq.     357.38  E(vib)   ...       0.22 
freq.     400.77  E(vib)   ...       0.19 
freq.     404.81  E(vib)   ...       0.19 
freq.     418.73  E(vib)   ...       0.18 
freq.     428.56  E(vib)   ...       0.18 
freq.     470.80  E(vib)   ...       0.15 
freq.     480.78  E(vib)   ...       0.15 
freq.     491.59  E(vib)   ...       0.14 
freq.     512.58  E(vib)   ...       0.13 
freq.     548.41  E(vib)   ...       0.12 
freq.     557.62  E(vib)   ...       0.12 
freq.     562.94  E(vib)   ...       0.11 
freq.     600.31  E(vib)   ...       0.10 
freq.     629.23  E(vib)   ...       0.09 
freq.     646.15  E(vib)   ...       0.09 
freq.     667.33  E(vib)   ...       0.08 
freq.     684.34  E(vib)   ...       0.07 
freq.     704.93  E(vib)   ...       0.07 
freq.     740.48  E(vib)   ...       0.06 
freq.     765.37  E(vib)   ...       0.06 
freq.     777.34  E(vib)   ...       0.05 
freq.     802.53  E(vib)   ...       0.05 
freq.     831.06  E(vib)   ...       0.04 
freq.     845.73  E(vib)   ...       0.04 
freq.     847.20  E(vib)   ...       0.04 
freq.     870.99  E(vib)   ...       0.04 
freq.     878.78  E(vib)   ...       0.04 
freq.     887.71  E(vib)   ...       0.04 
freq.     908.19  E(vib)   ...       0.03 
freq.     949.28  E(vib)   ...       0.03 
freq.     964.02  E(vib)   ...       0.03 
freq.     971.82  E(vib)   ...       0.03 
freq.     975.33  E(vib)   ...       0.03 
freq.     991.59  E(vib)   ...       0.02 
freq.     998.08  E(vib)   ...       0.02 
freq.    1014.04  E(vib)   ...       0.02 
freq.    1020.25  E(vib)   ...       0.02 
freq.    1037.53  E(vib)   ...       0.02 
freq.    1055.24  E(vib)   ...       0.02 
freq.    1095.18  E(vib)   ...       0.02 
freq.    1107.38  E(vib)   ...       0.02 
freq.    1110.99  E(vib)   ...       0.01 
freq.    1148.38  E(vib)   ...       0.01 
freq.    1149.74  E(vib)   ...       0.01 
freq.    1155.26  E(vib)   ...       0.01 
freq.    1167.99  E(vib)   ...       0.01 
freq.    1179.57  E(vib)   ...       0.01 
freq.    1186.93  E(vib)   ...       0.01 
freq.    1187.52  E(vib)   ...       0.01 
freq.    1191.42  E(vib)   ...       0.01 
freq.    1196.09  E(vib)   ...       0.01 
freq.    1228.30  E(vib)   ...       0.01 
freq.    1248.80  E(vib)   ...       0.01 
freq.    1256.65  E(vib)   ...       0.01 
freq.    1294.96  E(vib)   ...       0.01 
freq.    1316.87  E(vib)   ...       0.01 
freq.    1321.93  E(vib)   ...       0.01 
freq.    1341.60  E(vib)   ...       0.01 
freq.    1351.50  E(vib)   ...       0.01 
freq.    1358.63  E(vib)   ...       0.01 
freq.    1397.27  E(vib)   ...       0.00 
freq.    1415.12  E(vib)   ...       0.00 
freq.    1422.23  E(vib)   ...       0.00 
freq.    1442.09  E(vib)   ...       0.00 
freq.    1448.02  E(vib)   ...       0.00 
freq.    1458.12  E(vib)   ...       0.00 
freq.    1467.03  E(vib)   ...       0.00 
freq.    1476.38  E(vib)   ...       0.00 
freq.    1476.94  E(vib)   ...       0.00 
freq.    1488.38  E(vib)   ...       0.00 
freq.    1493.24  E(vib)   ...       0.00 
freq.    1516.18  E(vib)   ...       0.00 
freq.    1577.55  E(vib)   ...       0.00 
freq.    1581.50  E(vib)   ...       0.00 
freq.    1598.57  E(vib)   ...       0.00 
freq.    1615.88  E(vib)   ...       0.00 
freq.    1640.02  E(vib)   ...       0.00 
freq.    1673.38  E(vib)   ...       0.00 
freq.    2959.97  E(vib)   ...       0.00 
freq.    2989.41  E(vib)   ...       0.00 
freq.    2998.65  E(vib)   ...       0.00 
freq.    3023.88  E(vib)   ...       0.00 
freq.    3048.87  E(vib)   ...       0.00 
freq.    3054.60  E(vib)   ...       0.00 
freq.    3099.07  E(vib)   ...       0.00 
freq.    3118.53  E(vib)   ...       0.00 
freq.    3130.99  E(vib)   ...       0.00 
freq.    3133.58  E(vib)   ...       0.00 
freq.    3144.20  E(vib)   ...       0.00 
freq.    3160.66  E(vib)   ...       0.00 
freq.    3161.52  E(vib)   ...       0.00 
freq.    3165.01  E(vib)   ...       0.00 
freq.    3173.01  E(vib)   ...       0.00 
freq.    3174.78  E(vib)   ...       0.00 
freq.    3175.97  E(vib)   ...       0.00 
freq.    3541.07  E(vib)   ...       0.00 

------------
INNER ENERGY
------------

The inner energy is: U= E(el) + E(ZPE) + E(vib) + E(rot) + E(trans)
    E(el)   - is the total energy from the electronic structure calculation
              = E(kin-el) + E(nuc-el) + E(el-el) + E(nuc-nuc)
    E(ZPE)  - the the zero temperature vibrational energy from the frequency calculation
    E(vib)  - the the finite temperature correction to E(ZPE) due to population
              of excited vibrational states
    E(rot)  - is the rotational thermal energy
    E(trans)- is the translational thermal energy

Summary of contributions to the inner energy U:
Electronic energy                ...  -1073.53749053 Eh
Zero point energy                ...      0.32082098 Eh     201.32 kcal/mol
Thermal vibrational correction   ...      0.01935445 Eh      12.15 kcal/mol
Thermal rotational correction    ...      0.00141627 Eh       0.89 kcal/mol
Thermal translational correction ...      0.00141627 Eh       0.89 kcal/mol
-----------------------------------------------------------------------
Total thermal energy                  -1073.19448256 Eh


Summary of corrections to the electronic energy:
(perhaps to be used in another calculation)
Total thermal correction                  0.02218699 Eh      13.92 kcal/mol
Non-thermal (ZPE) correction              0.32082098 Eh     201.32 kcal/mol
-----------------------------------------------------------------------
Total correction                          0.34300797 Eh     215.24 kcal/mol


--------
ENTHALPY
--------

The enthalpy is H = U + kB*T
                kB is Boltzmann's constant
Total free energy                 ...  -1073.19448256 Eh 
Thermal Enthalpy correction       ...      0.00094421 Eh       0.59 kcal/mol
-----------------------------------------------------------------------
Total Enthalpy                    ...  -1073.19353835 Eh


Note: Only C1 symmetry has been detected, increase convergence thresholds 
      if your molecule has a higher symmetry. Symmetry factor of 1.0 is   
      used for the rotational entropy correction. 
 

Note: Rotational entropy computed according to Herzberg 
Infrared and Raman Spectra, Chapter V,1, Van Nostrand Reinhold, 1945 
Point Group:  C1, Symmetry Number:   1  
Rotational constants in cm-1:     0.025376     0.002488     0.002358 

Vibrational entropy computed according to the QRRHO of S. Grimme
Chem.Eur.J. 2012 18 9955


-------
ENTROPY
-------

The entropy contributions are T*S = T*(S(el)+S(vib)+S(rot)+S(trans))
     S(el)   - electronic entropy
     S(vib)  - vibrational entropy
     S(rot)  - rotational entropy
     S(trans)- translational entropy
The entropies will be listed as multiplied by the temperature to get
units of energy

Electronic entropy                ...      0.00000000 Eh      0.00 kcal/mol
Vibrational entropy               ...      0.03554258 Eh     22.30 kcal/mol
Rotational entropy                ...      0.01693224 Eh     10.63 kcal/mol
Translational entropy             ...      0.02049329 Eh     12.86 kcal/mol
-----------------------------------------------------------------------
Final entropy term                ...      0.07296812 Eh     45.79 kcal/mol

In case the symmetry of your molecule has not been determined correctly
or in case you have a reason to use a different symmetry number we print 
out the resulting rotational entropy values for sn=1,12 :
 --------------------------------------------------------
|  sn= 1 | S(rot)=       0.01693224 Eh     10.63 kcal/mol|
|  sn= 2 | S(rot)=       0.01627779 Eh     10.21 kcal/mol|
|  sn= 3 | S(rot)=       0.01589496 Eh      9.97 kcal/mol|
|  sn= 4 | S(rot)=       0.01562333 Eh      9.80 kcal/mol|
|  sn= 5 | S(rot)=       0.01541264 Eh      9.67 kcal/mol|
|  sn= 6 | S(rot)=       0.01524050 Eh      9.56 kcal/mol|
|  sn= 7 | S(rot)=       0.01509495 Eh      9.47 kcal/mol|
|  sn= 8 | S(rot)=       0.01496888 Eh      9.39 kcal/mol|
|  sn= 9 | S(rot)=       0.01485767 Eh      9.32 kcal/mol|
|  sn=10 | S(rot)=       0.01475819 Eh      9.26 kcal/mol|
|  sn=11 | S(rot)=       0.01466820 Eh      9.20 kcal/mol|
|  sn=12 | S(rot)=       0.01458604 Eh      9.15 kcal/mol|
 --------------------------------------------------------


-------------------
GIBBS FREE ENERGY
-------------------

The Gibbs free energy is G = H - T*S

Total enthalpy                    ...  -1073.19353835 Eh 
Total entropy correction          ...     -0.07296812 Eh    -45.79 kcal/mol
-----------------------------------------------------------------------
Final Gibbs free energy         ...  -1073.26650647 Eh

For completeness - the Gibbs free energy minus the electronic energy
G-E(el)                           ...      0.27098406 Eh    170.04 kcal/mol



Timings for individual modules:

Sum of individual times         ...    53575.217 sec (= 892.920 min)
GTO integral calculation        ...       33.677 sec (=   0.561 min)   0.1 %
SCF iterations                  ...     2713.921 sec (=  45.232 min)   5.1 %
SCF Gradient evaluation         ...      792.446 sec (=  13.207 min)   1.5 %
Geometry relaxation             ...        3.109 sec (=   0.052 min)   0.0 %
Numerical frequency calculation ...    50032.063 sec (= 833.868 min)  93.4 %
                             ****ORCA TERMINATED NORMALLY****
TOTAL RUN TIME: 0 days 14 hours 50 minutes 51 seconds 493 msec
‘Aldol-OH.cpcm’ -> ‘/home/rothe/Calc/Li_Path/THF/Aldol-OH/Aldol-OH.cpcm’
‘Aldol-OH.densities’ -> ‘/home/rothe/Calc/Li_Path/THF/Aldol-OH/Aldol-OH.densities’
‘Aldol-OH.engrad’ -> ‘/home/rothe/Calc/Li_Path/THF/Aldol-OH/Aldol-OH.engrad’
‘Aldol-OH.gbw’ -> ‘/home/rothe/Calc/Li_Path/THF/Aldol-OH/Aldol-OH.gbw’
‘Aldol-OH.hess’ -> ‘/home/rothe/Calc/Li_Path/THF/Aldol-OH/Aldol-OH.hess’
‘Aldol-OH.job’ -> ‘/home/rothe/Calc/Li_Path/THF/Aldol-OH/Aldol-OH.job’
‘Aldol-OH.opt’ -> ‘/home/rothe/Calc/Li_Path/THF/Aldol-OH/Aldol-OH.opt’
‘Aldol-OH_property.txt’ -> ‘/home/rothe/Calc/Li_Path/THF/Aldol-OH/Aldol-OH_property.txt’
‘Aldol-OH_trj.xyz’ -> ‘/home/rothe/Calc/Li_Path/THF/Aldol-OH/Aldol-OH_trj.xyz’
‘Aldol-OH.xyz’ -> ‘/home/rothe/Calc/Li_Path/THF/Aldol-OH/Aldol-OH.xyz’
