! Job execution by suborca V 5.02 !
Job started from clu.thch.uni-bonn.de, running /software/cluster/orca_5_0_2_linux_x86-64_openmpi411/orca from /software/cluster/orca_5_0_2_linux_x86-64_openmpi411 on boar228 in /tmp1/rothe/Aldol-OH_sp__pJC5aJ
Going to copy the following really necessary files:  

                                 *****************
                                 * O   R   C   A *
                                 *****************

                                            #,                                       
                                            ###                                      
                                            ####                                     
                                            #####                                    
                                            ######                                   
                                           ########,                                 
                                     ,,################,,,,,                         
                               ,,#################################,,                 
                          ,,##########################################,,             
                       ,#########################################, ''#####,          
                    ,#############################################,,   '####,        
                  ,##################################################,,,,####,       
                ,###########''''           ''''###############################       
              ,#####''   ,,,,##########,,,,          '''####'''          '####       
            ,##' ,,,,###########################,,,                        '##       
           ' ,,###''''                  '''############,,,                           
         ,,##''                                '''############,,,,        ,,,,,,###''
      ,#''                                            '''#######################'''  
     '                                                          ''''####''''         
             ,#######,   #######,   ,#######,      ##                                
            ,#'     '#,  ##    ##  ,#'     '#,    #''#        ######   ,####,        
            ##       ##  ##   ,#'  ##            #'  '#       #        #'  '#        
            ##       ##  #######   ##           ,######,      #####,   #    #        
            '#,     ,#'  ##    ##  '#,     ,#' ,#      #,         ##   #,  ,#        
             '#######'   ##     ##  '#######'  #'      '#     #####' # '####'        



                  #######################################################
                  #                        -***-                        #
                  #          Department of theory and spectroscopy      #
                  #    Directorship and core code : Frank Neese         #
                  #        Max Planck Institute fuer Kohlenforschung    #
                  #                Kaiser Wilhelm Platz 1               #
                  #                 D-45470 Muelheim/Ruhr               #
                  #                      Germany                        #
                  #                                                     #
                  #                  All rights reserved                #
                  #                        -***-                        #
                  #######################################################


                         Program Version 5.0.2 -  RELEASE  -


 With contributions from (in alphabetic order):
   Daniel Aravena         : Magnetic Suceptibility
   Michael Atanasov       : Ab Initio Ligand Field Theory (pilot matlab implementation)
   Alexander A. Auer      : GIAO ZORA, VPT2 properties, NMR spectrum
   Ute Becker             : Parallelization
   Giovanni Bistoni       : ED, misc. LED, open-shell LED, HFLD
   Martin Brehm           : Molecular dynamics
   Dmytro Bykov           : SCF Hessian
   Vijay G. Chilkuri      : MRCI spin determinant printing, contributions to CSF-ICE
   Dipayan Datta          : RHF DLPNO-CCSD density
   Achintya Kumar Dutta   : EOM-CC, STEOM-CC
   Dmitry Ganyushin       : Spin-Orbit,Spin-Spin,Magnetic field MRCI
   Miquel Garcia          : C-PCM and meta-GGA Hessian, CC/C-PCM, Gaussian charge scheme
   Yang Guo               : DLPNO-NEVPT2, F12-NEVPT2, CIM, IAO-localization
   Andreas Hansen         : Spin unrestricted coupled pair/coupled cluster methods
   Benjamin Helmich-Paris : MC-RPA, TRAH-SCF, COSX integrals
   Lee Huntington         : MR-EOM, pCC
   Robert Izsak           : Overlap fitted RIJCOSX, COSX-SCS-MP3, EOM
   Marcus Kettner         : VPT2
   Christian Kollmar      : KDIIS, OOCD, Brueckner-CCSD(T), CCSD density, CASPT2, CASPT2-K
   Simone Kossmann        : Meta GGA functionals, TD-DFT gradient, OOMP2, MP2 Hessian
   Martin Krupicka        : Initial AUTO-CI
   Lucas Lang             : DCDCAS
   Marvin Lechner         : AUTO-CI (C++ implementation), FIC-MRCC
   Dagmar Lenk            : GEPOL surface, SMD
   Dimitrios Liakos       : Extrapolation schemes; Compound Job, initial MDCI parallelization
   Dimitrios Manganas     : Further ROCIS development; embedding schemes
   Dimitrios Pantazis     : SARC Basis sets
   Anastasios Papadopoulos: AUTO-CI, single reference methods and gradients
   Taras Petrenko         : DFT Hessian,TD-DFT gradient, ASA, ECA, R-Raman, ABS, FL, XAS/XES, NRVS
   Peter Pinski           : DLPNO-MP2, DLPNO-MP2 Gradient
   Christoph Reimann      : Effective Core Potentials
   Marius Retegan         : Local ZFS, SOC
   Christoph Riplinger    : Optimizer, TS searches, QM/MM, DLPNO-CCSD(T), (RO)-DLPNO pert. Triples
   Tobias Risthaus        : Range-separated hybrids, TD-DFT gradient, RPA, STAB
   Michael Roemelt        : Original ROCIS implementation
   Masaaki Saitow         : Open-shell DLPNO-CCSD energy and density
   Barbara Sandhoefer     : DKH picture change effects
   Avijit Sen             : IP-ROCIS
   Kantharuban Sivalingam : CASSCF convergence, NEVPT2, FIC-MRCI
   Bernardo de Souza      : ESD, SOC TD-DFT
   Georgi Stoychev        : AutoAux, RI-MP2 NMR, DLPNO-MP2 response
   Willem Van den Heuvel  : Paramagnetic NMR
   Boris Wezisla          : Elementary symmetry handling
   Frank Wennmohs         : Technical directorship


 We gratefully acknowledge several colleagues who have allowed us to
 interface, adapt or use parts of their codes:
   Stefan Grimme, W. Hujo, H. Kruse, P. Pracht,  : VdW corrections, initial TS optimization,
                  C. Bannwarth, S. Ehlert          DFT functionals, gCP, sTDA/sTD-DF
   Ed Valeev, F. Pavosevic, A. Kumar             : LibInt (2-el integral package), F12 methods
   Garnet Chan, S. Sharma, J. Yang, R. Olivares  : DMRG
   Ulf Ekstrom                                   : XCFun DFT Library
   Mihaly Kallay                                 : mrcc  (arbitrary order and MRCC methods)
   Jiri Pittner, Ondrej Demel                    : Mk-CCSD
   Frank Weinhold                                : gennbo (NPA and NBO analysis)
   Christopher J. Cramer and Donald G. Truhlar   : smd solvation model
   Lars Goerigk                                  : TD-DFT with DH, B97 family of functionals
   V. Asgeirsson, H. Jonsson                     : NEB implementation
   FAccTs GmbH                                   : IRC, NEB, NEB-TS, DLPNO-Multilevel, CI-OPT
                                                   MM, QMMM, 2- and 3-layer-ONIOM, Crystal-QMMM,
                                                   LR-CPCM, SF, NACMEs, symmetry and pop. for TD-DFT,
                                                   nearIR, NL-DFT gradient (VV10), updates on ESD,
                                                   ML-optimized integration grids
   S Lehtola, MJT Oliveira, MAL Marques          : LibXC Library
   Liviu Ungur et al                             : ANISO software


 Your calculation uses the libint2 library for the computation of 2-el integrals
 For citations please refer to: http://libint.valeyev.net

 Your ORCA version has been built with support for libXC version: 5.1.0
 For citations please refer to: https://tddft.org/programs/libxc/

 This ORCA versions uses:
   CBLAS   interface :  Fast vector & matrix operations
   LAPACKE interface :  Fast linear algebra routines
   SCALAPACK package :  Parallel linear algebra routines
   Shared memory     :  Shared parallel matrices
   BLAS/LAPACK       :  OpenBLAS 0.3.15  USE64BITINT DYNAMIC_ARCH NO_AFFINITY Barcelona SINGLE_THREADED
        Core in use  :  Barcelona
   Copyright (c) 2011-2014, The OpenBLAS Project


Your calculation utilizes the atom-pairwise dispersion correction
with the Becke-Johnson damping scheme (D3BJ)
Cite in your paper:
S.Grimme, S.Ehrlich, L.Goerigk, J Comput Chem, (2011), 32, 1456–1465 
S.Grimme, J.Antony, S.Ehrlich and H.Krieg, J.Chem.Phys., 132, (2010), 154104 
   

================================================================================

----- Orbital basis set information -----
Your calculation utilizes the basis: def2-QZVP
   F. Weigend and R. Ahlrichs, Phys. Chem. Chem. Phys. 7, 3297 (2005).

----- AuxJK basis set information -----
Your calculation utilizes the auxiliary basis: def2/JK
   H-Ba, Hf-Rn: F. Weigend, J. Comput. Chem. 29, 167 (2008).

================================================================================
                                        WARNINGS
                       Please study these warnings very carefully!
================================================================================


INFO   : the flag for use of the SHARK integral package has been found!

================================================================================
                                       INPUT FILE
================================================================================
NAME = Aldol-OH_sp.inp
|  1> ! PW6B95 D3BJ def2-QZVP RIJK def2/JK tightSCF CPCM(THF)
|  2> ! sp Pal4
|  3> 
|  4> * xyz 0 1  
|  5>  C   -2.59954856745799      2.34536796216961      0.05607051934307
|  6>   C   -2.77618680980293      1.11091908234782      0.70017579268761
|  7>   C   -1.67644729274962      0.27071492982147      0.89345763215790
|  8>   C   -0.40702371989695      0.64051687631778      0.46254361301018
|  9>   C   -0.23187758343005      1.87650658851799     -0.18594099287713
| 10>   C   -1.32907161442793      2.72047439228295     -0.38787962964394
| 11>   O   -3.60467847605190      3.23928725254928     -0.18045796980310
| 12>   C   -4.92719722008809      2.88116760611120      0.26166102490209
| 13>   H   -5.26746334135929      1.96664832562226     -0.23668130563110
| 14>   H   -5.56227212244801      3.71990731857006     -0.02219679559950
| 15>   H   -4.94834168014938      2.74486452617761      1.34862155306298
| 16>   C   1.09870368638407      2.32009552255250     -0.68380111294709
| 17>   H   -1.19226129634865      3.67255591308860     -0.89033142330580
| 18>   H   -3.75396621814185      0.80017948372149      1.05023617979236
| 19>   H   -1.82301608435010     -0.68360283044775      1.39083428268684
| 20>   H   0.43246196398659     -0.02656629573850      0.62186530882203
| 21>   O   1.21605395962883      3.37444892909447     -1.31773307025025
| 22>   C   2.31138182701574      1.44749565011927     -0.40651341085115
| 23>   C   3.64126673900434      2.15246590988581     -0.73148317455556
| 24>   O   3.70326685385286      2.51847042262068     -2.11595690789838
| 25>   C   4.80280453498913      1.24481989619024     -0.40127224971876
| 26>   H   3.71135502489978      3.05553706028384     -0.10682907236336
| 27>   C   5.42545975430921      0.47364264323163     -1.38899802662277
| 28>   H   2.90689321634736      3.07490452928578     -2.24318250157354
| 29>   C   5.24069132698994      1.13757699248126      0.92578262765706
| 30>   C   6.46498546359291     -0.39200165349672     -1.05848015333480
| 31>   C   6.89626847153537     -0.50160800189823      0.27100523197919
| 32>   C   6.27449914553534      0.27248012586005      1.26176787725332
| 33>   H   4.76945314714798      1.74145924449853      1.69762694783861
| 34>   H   5.09431035895668      0.56035712917165     -2.41823126869638
| 35>   H   6.94345943030178     -0.98415352276848     -1.83076868489395
| 36>   H   6.61739795764822      0.19035531063850      2.28824168507238
| 37>   C   7.99889715311404     -1.40915716582917      0.67648294046353
| 38>   O   8.51471854264170     -2.09746059409849     -0.36817691840381
| 39>   C   9.59996789681317     -3.00326538952898     -0.03654548098938
| 40>   H   9.25090390052944     -3.75840799555884      0.67117535024997
| 41>   H   10.43169428141506     -2.44372462742325      0.39700833784898
| 42>   H   9.88640017767045     -3.45819401970650     -0.98360293360203
| 43>   O   8.40969849608058     -1.53604411258607      1.82216275312859
| 44>   H   2.22672429045669      0.53115307385488     -1.00692889437713
| 45>   H   2.30405011615530      1.13522055161359      0.64372228088149
| 46> *
| 47> 
| 48>                          ****END OF INPUT****
================================================================================

                       ****************************
                       * Single Point Calculation *
                       ****************************

---------------------------------
CARTESIAN COORDINATES (ANGSTROEM)
---------------------------------
  C     -2.599549    2.345368    0.056071
  C     -2.776187    1.110919    0.700176
  C     -1.676447    0.270715    0.893458
  C     -0.407024    0.640517    0.462544
  C     -0.231878    1.876507   -0.185941
  C     -1.329072    2.720474   -0.387880
  O     -3.604678    3.239287   -0.180458
  C     -4.927197    2.881168    0.261661
  H     -5.267463    1.966648   -0.236681
  H     -5.562272    3.719907   -0.022197
  H     -4.948342    2.744865    1.348622
  C      1.098704    2.320096   -0.683801
  H     -1.192261    3.672556   -0.890331
  H     -3.753966    0.800179    1.050236
  H     -1.823016   -0.683603    1.390834
  H      0.432462   -0.026566    0.621865
  O      1.216054    3.374449   -1.317733
  C      2.311382    1.447496   -0.406513
  C      3.641267    2.152466   -0.731483
  O      3.703267    2.518470   -2.115957
  C      4.802805    1.244820   -0.401272
  H      3.711355    3.055537   -0.106829
  C      5.425460    0.473643   -1.388998
  H      2.906893    3.074905   -2.243183
  C      5.240691    1.137577    0.925783
  C      6.464985   -0.392002   -1.058480
  C      6.896268   -0.501608    0.271005
  C      6.274499    0.272480    1.261768
  H      4.769453    1.741459    1.697627
  H      5.094310    0.560357   -2.418231
  H      6.943459   -0.984154   -1.830769
  H      6.617398    0.190355    2.288242
  C      7.998897   -1.409157    0.676483
  O      8.514719   -2.097461   -0.368177
  C      9.599968   -3.003265   -0.036545
  H      9.250904   -3.758408    0.671175
  H     10.431694   -2.443725    0.397008
  H      9.886400   -3.458194   -0.983603
  O      8.409698   -1.536044    1.822163
  H      2.226724    0.531153   -1.006929
  H      2.304050    1.135221    0.643722

----------------------------
CARTESIAN COORDINATES (A.U.)
----------------------------
  NO LB      ZA    FRAG     MASS         X           Y           Z
   0 C     6.0000    0    12.011   -4.912435    4.432103    0.105958
   1 C     6.0000    0    12.011   -5.246233    2.099333    1.323140
   2 C     6.0000    0    12.011   -3.168026    0.511577    1.688390
   3 C     6.0000    0    12.011   -0.769163    1.210401    0.874081
   4 C     6.0000    0    12.011   -0.438185    3.546084   -0.351378
   5 C     6.0000    0    12.011   -2.511581    5.140952   -0.732986
   6 O     8.0000    0    15.999   -6.811855    6.121366   -0.341016
   7 C     6.0000    0    12.011   -9.311053    5.444618    0.494468
   8 H     1.0000    0     1.008   -9.954063    3.716427   -0.447263
   9 H     1.0000    0     1.008  -10.511171    7.029606   -0.041946
  10 H     1.0000    0     1.008   -9.351011    5.187042    2.548525
  11 C     6.0000    0    12.011    2.076249    4.384345   -1.292197
  12 H     1.0000    0     1.008   -2.253047    6.940125   -1.682483
  13 H     1.0000    0     1.008   -7.093968    1.512120    1.984659
  14 H     1.0000    0     1.008   -3.445001   -1.291822    2.628296
  15 H     1.0000    0     1.008    0.817235   -0.050203    1.175155
  16 O     8.0000    0    15.999    2.298009    6.376784   -2.490155
  17 C     6.0000    0    12.011    4.367879    2.735370   -0.768199
  18 C     6.0000    0    12.011    6.880997    4.067571   -1.382303
  19 O     8.0000    0    15.999    6.998160    4.759219   -3.998579
  20 C     6.0000    0    12.011    9.075985    2.352369   -0.758295
  21 H     1.0000    0     1.008    7.013445    5.774128   -0.201878
  22 C     6.0000    0    12.011   10.252633    0.895055   -2.624826
  23 H     1.0000    0     1.008    5.493232    5.810727   -4.239001
  24 C     6.0000    0    12.011    9.903471    2.149709    1.749476
  25 C     6.0000    0    12.011   12.217052   -0.740776   -2.000238
  26 C     6.0000    0    12.011   13.032059   -0.947902    0.512126
  27 C     6.0000    0    12.011   11.857085    0.514913    2.384396
  28 H     1.0000    0     1.008    9.012960    3.290881    3.208050
  29 H     1.0000    0     1.008    9.626851    1.058922   -4.569795
  30 H     1.0000    0     1.008   13.121237   -1.859781   -3.459651
  31 H     1.0000    0     1.008   12.505070    0.359719    4.324150
  32 C     6.0000    0    12.011   15.115725   -2.662921    1.278367
  33 O     8.0000    0    15.999   16.090486   -3.963626   -0.695754
  34 C     6.0000    0    12.011   18.141310   -5.675349   -0.069061
  35 H     1.0000    0     1.008   17.481675   -7.102362    1.268338
  36 H     1.0000    0     1.008   19.713045   -4.617970    0.750237
  37 H     1.0000    0     1.008   18.682589   -6.535040   -1.858740
  38 O     8.0000    0    15.999   15.892027   -2.902703    3.443389
  39 H     1.0000    0     1.008    4.207899    1.003734   -1.902820
  40 H     1.0000    0     1.008    4.354024    2.145256    1.216459

--------------------------------
INTERNAL COORDINATES (ANGSTROEM)
--------------------------------
 C      0   0   0     0.000000000000     0.00000000     0.00000000
 C      1   0   0     1.403544337989     0.00000000     0.00000000
 C      2   1   0     1.397400405310   119.55472246     0.00000000
 C      3   2   1     1.390638910301   121.04043935     0.27425670
 C      4   3   2     1.406726349315   119.35017202   359.56477581
 C      1   2   3     1.397107102866   119.76290219     0.15629289
 O      1   2   3     1.365768485886   124.23020146   180.10056411
 C      7   1   2     1.439713414180   117.39020380   359.89384137
 H      8   7   1     1.095660360729   110.68465436   298.90337718
 H      8   7   1     1.089669536659   105.30239267   179.99579931
 H      8   7   1     1.095677328218   110.69028352    61.08895773
 C      5   4   3     1.488315274777   121.82930430   180.73403777
 H      6   1   2     1.085188504522   119.82331808   179.70134256
 H      2   1   3     1.084045176248   120.91866680   179.97815476
 H      3   2   1     1.086088546449   119.04197592   180.13716389
 H      4   3   2     1.084029323700   119.84974023   180.04170284
 O     12   5   4     1.235840571841   120.71452899   175.84230386
 C     12   5   4     1.519508894304   118.76966927   356.24855498
 C     18  12   5     1.539864375071   112.81943828   191.22623676
 O     19  18  12     1.433377422698   110.98318513   299.76573549
 C     19  18  12     1.510639133797   110.05084223   178.58793441
 H     19  18  12     1.100292060267   108.11688996    60.03972567
 C     21  19  18     1.399291280609   121.26395891    97.37140888
 H     20  19  18     0.979804183120   103.60764688    56.65599702
 C     21  19  18     1.401542197214   119.54968130   279.44566479
 C     23  21  19     1.392550111588   120.47916957   182.21297408
 C     26  23  21     1.401980732504   120.21930346     0.15817539
 C     25  21  19     1.389257817063   120.60618308   177.61964408
 H     25  21  19     1.087420273417   119.61595561   357.30125137
 H     23  21  19     1.084666027265   119.33329985     2.56207437
 H     26  23  21     1.084440292998   119.98488616   180.14695608
 H     28  25  21     1.085344442452   120.72691563   179.79194670
 C     27  26  23     1.484536178902   122.36359786   179.97160658
 O     33  27  26     1.353199000883   112.53334524   359.82930659
 C     34  33  27     1.451973793991   115.20793271   179.94072156
 H     35  34  33     1.092224703948   109.90350083    60.77408984
 H     35  34  33     1.092164619977   109.89246523   299.71151272
 H     35  34  33     1.089000150882   104.98530882   180.23824979
 O     33  27  26     1.223699421340   124.64236443   179.88290594
 H     18  12   5     1.098794506916   108.52422835    69.75848548
 H     18  12   5     1.095702742225   109.46541564   313.79162716

---------------------------
INTERNAL COORDINATES (A.U.)
---------------------------
 C      0   0   0     0.000000000000     0.00000000     0.00000000
 C      1   0   0     2.652314415616     0.00000000     0.00000000
 C      2   1   0     2.640704065466   119.55472246     0.00000000
 C      3   2   1     2.627926691645   121.04043935     0.27425670
 C      4   3   2     2.658327545576   119.35017202   359.56477581
 C      1   2   3     2.640149804173   119.76290219     0.15629289
 O      1   2   3     2.580928400666   124.23020146   180.10056411
 C      7   1   2     2.720664064134   117.39020380   359.89384137
 H      8   7   1     2.070498017571   110.68465436   298.90337718
 H      8   7   1     2.059177000763   105.30239267   179.99579931
 H      8   7   1     2.070530081478   110.69028352    61.08895773
 C      5   4   3     2.812508270260   121.82930430   180.73403777
 H      6   1   2     2.050709077226   119.82331808   179.70134256
 H      2   1   3     2.048548499907   120.91866680   179.97815476
 H      3   2   1     2.052409909977   119.04197592   180.13716389
 H      4   3   2     2.048518542934   119.84974023   180.04170284
 O     12   5   4     2.335400225968   120.71452899   175.84230386
 C     12   5   4     2.871455668293   118.76966927   356.24855498
 C     18  12   5     2.909921952266   112.81943828   191.22623676
 O     19  18  12     2.708690775445   110.98318513   299.76573549
 C     19  18  12     2.854694250061   110.05084223   178.58793441
 H     19  18  12     2.079250661233   108.11688996    60.03972567
 C     21  19  18     2.644277301935   121.26395891    97.37140888
 H     20  19  18     1.851561570968   103.60764688    56.65599702
 C     21  19  18     2.648530917869   119.54968130   279.44566479
 C     23  21  19     2.631538338662   120.47916957   182.21297408
 C     26  23  21     2.649359629467   120.21930346     0.15817539
 C     25  21  19     2.625316803658   120.60618308   177.61964408
 H     25  21  19     2.054926509232   119.61595561   357.30125137
 H     23  21  19     2.049721738300   119.33329985     2.56207437
 H     26  23  21     2.049295162356   119.98488616   180.14695608
 H     28  25  21     2.051003757208   120.72691563   179.79194670
 C     27  26  23     2.805366814023   122.36359786   179.97160658
 O     33  27  26     2.557175516364   112.53334524   359.82930659
 C     34  33  27     2.743832824273   115.20793271   179.94072156
 H     35  34  33     2.064005567164   109.90350083    60.77408984
 H     35  34  33     2.063892024915   109.89246523   299.71151272
 H     35  34  33     2.057912044966   104.98530882   180.23824979
 O     33  27  26     2.312456776571   124.64236443   179.88290594
 H     18  12   5     2.076420695528   108.52422835    69.75848548
 H     18  12   5     2.070578106992   109.46541564   313.79162716

---------------------
BASIS SET INFORMATION
---------------------
There are 3 groups of distinct atoms

 Group   1 Type C   : 15s8p3d2f1g contracted to 7s4p3d2f1g pattern {8211111/5111/111/11/1}
 Group   2 Type O   : 15s8p3d2f1g contracted to 7s4p3d2f1g pattern {8211111/5111/111/11/1}
 Group   3 Type H   : 7s3p2d1f contracted to 4s3p2d1f pattern {4111/111/11/1}

Atom   0C    basis set group =>   1
Atom   1C    basis set group =>   1
Atom   2C    basis set group =>   1
Atom   3C    basis set group =>   1
Atom   4C    basis set group =>   1
Atom   5C    basis set group =>   1
Atom   6O    basis set group =>   2
Atom   7C    basis set group =>   1
Atom   8H    basis set group =>   3
Atom   9H    basis set group =>   3
Atom  10H    basis set group =>   3
Atom  11C    basis set group =>   1
Atom  12H    basis set group =>   3
Atom  13H    basis set group =>   3
Atom  14H    basis set group =>   3
Atom  15H    basis set group =>   3
Atom  16O    basis set group =>   2
Atom  17C    basis set group =>   1
Atom  18C    basis set group =>   1
Atom  19O    basis set group =>   2
Atom  20C    basis set group =>   1
Atom  21H    basis set group =>   3
Atom  22C    basis set group =>   1
Atom  23H    basis set group =>   3
Atom  24C    basis set group =>   1
Atom  25C    basis set group =>   1
Atom  26C    basis set group =>   1
Atom  27C    basis set group =>   1
Atom  28H    basis set group =>   3
Atom  29H    basis set group =>   3
Atom  30H    basis set group =>   3
Atom  31H    basis set group =>   3
Atom  32C    basis set group =>   1
Atom  33O    basis set group =>   2
Atom  34C    basis set group =>   1
Atom  35H    basis set group =>   3
Atom  36H    basis set group =>   3
Atom  37H    basis set group =>   3
Atom  38O    basis set group =>   2
Atom  39H    basis set group =>   3
Atom  40H    basis set group =>   3
----------------------------------
AUXILIARY/JK BASIS SET INFORMATION
----------------------------------
There are 3 groups of distinct atoms

 Group   1 Type C   : 14s10p6d2f1g contracted to 10s8p5d1f1g pattern {5111111111/31111111/21111/2/1}
 Group   2 Type O   : 14s10p6d2f1g contracted to 10s8p4d2f1g pattern {5111111111/31111111/3111/11/1}
 Group   3 Type H   : 4s2p2d contracted to 2s2p2d pattern {31/11/11}

Atom   0C    basis set group =>   1
Atom   1C    basis set group =>   1
Atom   2C    basis set group =>   1
Atom   3C    basis set group =>   1
Atom   4C    basis set group =>   1
Atom   5C    basis set group =>   1
Atom   6O    basis set group =>   2
Atom   7C    basis set group =>   1
Atom   8H    basis set group =>   3
Atom   9H    basis set group =>   3
Atom  10H    basis set group =>   3
Atom  11C    basis set group =>   1
Atom  12H    basis set group =>   3
Atom  13H    basis set group =>   3
Atom  14H    basis set group =>   3
Atom  15H    basis set group =>   3
Atom  16O    basis set group =>   2
Atom  17C    basis set group =>   1
Atom  18C    basis set group =>   1
Atom  19O    basis set group =>   2
Atom  20C    basis set group =>   1
Atom  21H    basis set group =>   3
Atom  22C    basis set group =>   1
Atom  23H    basis set group =>   3
Atom  24C    basis set group =>   1
Atom  25C    basis set group =>   1
Atom  26C    basis set group =>   1
Atom  27C    basis set group =>   1
Atom  28H    basis set group =>   3
Atom  29H    basis set group =>   3
Atom  30H    basis set group =>   3
Atom  31H    basis set group =>   3
Atom  32C    basis set group =>   1
Atom  33O    basis set group =>   2
Atom  34C    basis set group =>   1
Atom  35H    basis set group =>   3
Atom  36H    basis set group =>   3
Atom  37H    basis set group =>   3
Atom  38O    basis set group =>   2
Atom  39H    basis set group =>   3
Atom  40H    basis set group =>   3


           ************************************************************
           *        Program running with 4 parallel MPI-processes     *
           *              working on a common directory               *
           ************************************************************
------------------------------------------------------------------------------
                           ORCA GTO INTEGRAL CALCULATION
                           -- RI-GTO INTEGRALS CHOSEN --
------------------------------------------------------------------------------
------------------------------------------------------------------------------
                   ___                                                        
                  /   \      - P O W E R E D   B Y -                         
                 /     \                                                     
                 |  |  |   _    _      __       _____    __    __             
                 |  |  |  | |  | |    /  \     |  _  \  |  |  /  |          
                  \  \/   | |  | |   /    \    | | | |  |  | /  /          
                 / \  \   | |__| |  /  /\  \   | |_| |  |  |/  /          
                |  |  |   |  __  | /  /__\  \  |    /   |      \           
                |  |  |   | |  | | |   __   |  |    \   |  |\   \          
                \     /   | |  | | |  |  |  |  | |\  \  |  | \   \       
                 \___/    |_|  |_| |__|  |__|  |_| \__\ |__|  \__/        
                                                                              
                      - O R C A' S   B I G   F R I E N D -                    
                                      &                                       
                       - I N T E G R A L  F E E D E R -                       
                                                                              
 v1 FN, 2020, v2 2021                                                         
------------------------------------------------------------------------------


Reading SHARK input file Aldol-OH_sp.SHARKINP.tmp ... ok
----------------------
SHARK INTEGRAL PACKAGE
----------------------

Number of atoms                             ...     41
Number of basis functions                   ...   1851
Number of shells                            ...    571
Maximum angular momentum                    ...      4
Integral batch strategy                     ... SHARK/LIBINT Hybrid
RI-J (if used) integral strategy            ... SPLIT-RIJ (Revised 2003 algorithm where possible)
Printlevel                                  ...      1
Contraction scheme used                     ... SEGMENTED contraction
Coulomb Range Separation                    ... NOT USED
Exchange Range Separation                   ... NOT USED
Finite Nucleus Model                        ... NOT USED
Auxiliary Coulomb fitting basis             ... NOT available
Auxiliary J/K fitting basis                 ... AVAILABLE
   # of basis functions in Aux-JK           ...   2059
   # of shells in Aux-JK                    ...    683
   Maximum angular momentum in Aux-JK       ...      4
Auxiliary Correlation fitting basis         ... NOT available
Auxiliary 'external' fitting basis          ... NOT available
Integral threshold                          ...     2.500000e-11
Primitive cut-off                           ...     2.500000e-12
Primitive pair pre-selection threshold      ...     2.500000e-12

Calculating pre-screening integrals         ... done (  3.1 sec) Dimension = 571
Organizing shell pair data                  ... done (  4.2 sec)
Shell pair information
Total number of shell pairs                 ...    163306
Shell pairs after pre-screening             ...     81185
Total number of primitive shell pairs       ...    407356
Primitive shell pairs kept                  ...    142617
          la=0 lb=0:  12815 shell pairs
          la=1 lb=0:  18517 shell pairs
          la=1 lb=1:   6545 shell pairs
          la=2 lb=0:  11291 shell pairs
          la=2 lb=1:   8244 shell pairs
          la=2 lb=2:   2546 shell pairs
          la=3 lb=0:   6598 shell pairs
          la=3 lb=1:   4859 shell pairs
          la=3 lb=2:   2909 shell pairs
          la=3 lb=3:    868 shell pairs
          la=4 lb=0:   2426 shell pairs
          la=4 lb=1:   1770 shell pairs
          la=4 lb=2:   1068 shell pairs
          la=4 lb=3:    606 shell pairs
          la=4 lb=4:    123 shell pairs

Calculating one electron integrals          ... done (  0.8 sec)
Calculating RI/JK V-Matrix + Cholesky decomp... done (  0.7 sec)
Calculating Nuclear repulsion               ... done (  0.0 sec) ENN=   1734.417603904350 Eh

SHARK setup successfully completed in  15.4 seconds

Maximum memory used throughout the entire GTOINT-calculation: 155.7 MB


           ************************************************************
           *        Program running with 4 parallel MPI-processes     *
           *              working on a common directory               *
           ************************************************************
-------------------------------------------------------------------------------
                                 ORCA SCF
-------------------------------------------------------------------------------

------------
SCF SETTINGS
------------
Hamiltonian:
 Density Functional     Method          .... DFT(GTOs)
 Exchange Functional    Exchange        .... PW6
 Correlation Functional Correlation     .... B95
 Gradients option       PostSCFGGA      .... off
 Hybrid DFT is turned on
   Fraction HF Exchange ScalHFX         ....  0.280000
   Scaling of DF-GGA-X  ScalDFX         ....  0.720000
   Scaling of DF-GGA-C  ScalDFC         ....  1.000000
   Scaling of DF-LDA-C  ScalLDAC        ....  1.000000
   Perturbative correction              ....  0.000000
   Density functional embedding theory  .... OFF
   NL short-range parameter             ....  9.000000
 RI-approximation to the Coulomb term is turned on
   Number of AuxJK basis functions      .... 2059
   RI-JK (J+K treated both via RI)      .... on


General Settings:
 Integral files         IntName         .... Aldol-OH_sp
 Hartree-Fock type      HFTyp           .... RHF
 Total Charge           Charge          ....    0
 Multiplicity           Mult            ....    1
 Number of Electrons    NEL             ....  166
 Basis Dimension        Dim             .... 1851
 Nuclear Repulsion      ENuc            ....   1734.4176039044 Eh

Convergence Acceleration:
 DIIS                   CNVDIIS         .... on
   Start iteration      DIISMaxIt       ....    12
   Startup error        DIISStart       ....  0.200000
   # of expansion vecs  DIISMaxEq       ....     5
   Bias factor          DIISBfac        ....   1.050
   Max. coefficient     DIISMaxC        ....  10.000
 Trust-Rad. Augm. Hess. CNVTRAH         .... auto
   Auto Start mean grad. ratio tolernc. ....  1.125000
   Auto Start start iteration           ....    20
   Auto Start num. interpolation iter.  ....    10
   Max. Number of Micro iterations      ....    16
   Max. Number of Macro iterations      .... Maxiter - #DIIS iter
   Number of Davidson start vectors     ....     2
   Converg. threshold I  (grad. norm)   ....   1.000e-05
   Converg. threshold II (energy diff.) ....   1.000e-08
   Grad. Scal. Fac. for Micro threshold ....   0.100
   Minimum threshold for Micro iter.    ....   0.010
   NR start threshold (gradient norm)   ....   0.001
   Initial trust radius                 ....   0.400
   Minimum AH scaling param. (alpha)    ....   1.000
   Maximum AH scaling param. (alpha)    .... 1000.000
   Orbital update algorithm             .... Taylor
   White noise on init. David. guess    .... on
   Maximum white noise                  ....   0.010
   Quad. conv. algorithm                .... NR
 SOSCF                  CNVSOSCF        .... on
   Start iteration      SOSCFMaxIt      ....   150
   Startup grad/error   SOSCFStart      ....  0.003300
 Level Shifting         CNVShift        .... on
   Level shift para.    LevelShift      ....    0.2500
   Turn off err/grad.   ShiftErr        ....    0.0010
 Zerner damping         CNVZerner       .... off
 Static damping         CNVDamp         .... on
   Fraction old density DampFac         ....    0.7000
   Max. Damping (<1)    DampMax         ....    0.9800
   Min. Damping (>=0)   DampMin         ....    0.0000
   Turn off err/grad.   DampErr         ....    0.1000
 Fernandez-Rico         CNVRico         .... off

SCF Procedure:
 Maximum # iterations   MaxIter         ....   125
 SCF integral mode      SCFMode         .... Direct
   Integral package                     .... SHARK and LIBINT hybrid scheme
 Reset frequency        DirectResetFreq ....    20
 Integral Threshold     Thresh          ....  2.500e-11 Eh
 Primitive CutOff       TCut            ....  2.500e-12 Eh

Convergence Tolerance:
 Convergence Check Mode ConvCheckMode   .... Total+1el-Energy
 Convergence forced     ConvForced      .... 0
 Energy Change          TolE            ....  1.000e-08 Eh
 1-El. energy change                    ....  1.000e-05 Eh
 Orbital Gradient       TolG            ....  1.000e-05
 Orbital Rotation angle TolX            ....  1.000e-05
 DIIS Error             TolErr          ....  5.000e-07


Diagonalization of the overlap matrix:
Smallest eigenvalue                        ... 5.081e-06
Time for diagonalization                   ...    2.538 sec
Threshold for overlap eigenvalues          ... 1.000e-08
Number of eigenvalues below threshold      ... 0
Time for construction of square roots      ...    1.922 sec
Total time needed                          ...    4.488 sec

Time for model grid setup =    4.786 sec

------------------------------
INITIAL GUESS: MODEL POTENTIAL
------------------------------
Loading Hartree-Fock densities                     ... done
Calculating cut-offs                               ... done
Initializing the effective Hamiltonian             ... done
Setting up the integral package (SHARK)            ... done
Starting the Coulomb interaction                   ... done (   8.1 sec)
Reading the grid                                   ... done
Mapping shells                                     ... done
Starting the XC term evaluation                    ... done (   5.0 sec)
  promolecular density results
     # of electrons  =    165.987231753
     EX              =   -141.130512025
     EC              =    -10.714222569
     EX+EC           =   -151.844734593
Transforming the Hamiltonian                       ... done (   1.5 sec)
Diagonalizing the Hamiltonian                      ... done (   2.5 sec)
Back transforming the eigenvectors                 ... done (   0.7 sec)
Now organizing SCF variables                       ... done
                      ------------------
                      INITIAL GUESS DONE (  22.8 sec)
                      ------------------
-------------------
DFT GRID GENERATION
-------------------

General Integration Accuracy     IntAcc      ... 4.388
Radial Grid Type                 RadialGrid  ... OptM3 with GC (2021)
Angular Grid (max. ang.)         AngularGrid ... 4 (Lebedev-302)
Angular grid pruning method      GridPruning ... 4 (adaptive)
Weight generation scheme         WeightScheme... Becke
Basis function cutoff            BFCut       ... 1.0000e-11
Integration weight cutoff        WCut        ... 1.0000e-14
Angular grids for H and He will be reduced by one unit
Partially contracted basis set               ... off
Rotationally invariant grid construction     ... off

Total number of grid points                  ...   201346
Total number of batches                      ...     3164
Average number of points per batch           ...       63
Average number of grid points per atom       ...     4911
Time for grid setup =   12.308 sec


--------------------
CPCM SOLVATION MODEL
--------------------
CPCM parameters:
  Epsilon                                         ...       7.2500
  Refrac                                          ...       1.4070
  Rsolv                                           ...       1.3000
  Surface type                                    ... GAUSSIAN VDW
  Epsilon function type                           ...         CPCM
Radii:
 Radius for C  used is    3.8550 Bohr (=   2.0400 Ang.)
 Radius for O  used is    3.4469 Bohr (=   1.8240 Ang.)
 Radius for H  used is    2.4944 Bohr (=   1.3200 Ang.)
Calculating surface                               ...        done! (  0.0s)
GEPOL surface points                              ...         2174
GEPOL Volume                                      ...    2522.9029
GEPOL Surface-area                                ...    1305.3859
Calculating surface distance matrix               ...        done! (  0.1s)
Performing Cholesky decomposition & store         ...        done! (  0.6s)
Overall time for CPCM initialization              ...                 0.7s
--------------
SCF ITERATIONS
--------------
ITER       Energy         Delta-E        Max-DP      RMS-DP      [F,P]     Damp
  0  -1073.9302731256   0.000000000000 0.08531954  0.00029097  0.3745479 0.7000
  1  -1073.8702684868   0.060004638739 0.12315114  0.00033073  0.2001293 0.7000
                               ***Turning on DIIS***
  2  -1074.1014048843  -0.231136397413 0.19901044  0.00057977  0.0636520 0.0000
  3  -1074.5910389687  -0.489634084407 0.04480744  0.00010765  0.1188366 0.7000
  4  -1074.7001109555  -0.109071986860 0.17595463  0.00041932  0.0914200 0.0000
  5  -1074.6998827173   0.000228238192 0.01801040  0.00005205  0.0359467 0.0000
  6  -1074.7043575069  -0.004474789598 0.00776618  0.00002048  0.0088327 0.0000
                      *** Initiating the SOSCF procedure ***
                           *** Shutting down DIIS ***
                      *** Re-Reading the Fockian *** 
                      *** Removing any level shift *** 
ITER      Energy       Delta-E        Grad      Rot      Max-DP    RMS-DP
  7  -1074.70460931  -0.0002518008  0.000412  0.000412  0.004009  0.000011
  8  -1074.70465818  -0.0000488731  0.000391  0.001269  0.002751  0.000008
  9  -1074.70465539   0.0000027942  0.000507  0.000634  0.000738  0.000003
 10  -1074.70466742  -0.0000120351  0.000078  0.000124  0.000707  0.000002
 11  -1074.70466733   0.0000000923  0.000067  0.000084  0.000100  0.000001
 12  -1074.70466806  -0.0000007351  0.000016  0.000037  0.000214  0.000001
 13  -1074.70466805   0.0000000165  0.000019  0.000024  0.000120  0.000000
                  ***Gradient check signals convergence***
              ***Rediagonalizing the Fockian in SOSCF/NRSCF***

               *****************************************************
               *                     SUCCESS                       *
               *           SCF CONVERGED AFTER  14 CYCLES          *
               *****************************************************


----------------
TOTAL SCF ENERGY
----------------

Total Energy       :        -1074.70466808 Eh          -29244.20077 eV

Components:
Nuclear Repulsion  :         1734.41760390 Eh           47195.90240 eV
Electronic Energy  :        -2809.12227199 Eh          -76440.10316 eV
One Electron Energy:        -4906.73172437 Eh         -133518.95819 eV
Two Electron Energy:         2097.60945238 Eh           57078.85503 eV
CPCM Dielectric    :           -0.02276258 Eh              -0.61940 eV

Virial components:
Potential Energy   :        -2144.35416853 Eh          -58350.84343 eV
Kinetic Energy     :         1069.64950045 Eh           29106.64266 eV
Virial Ratio       :            2.00472600


DFT components:
N(Alpha)           :       83.000031144255 electrons
N(Beta)            :       83.000031144255 electrons
N(Total)           :      166.000062288509 electrons
E(X)               :     -103.533088912330 Eh       
E(C)               :       -5.911235993497 Eh       
E(XC)              :     -109.444324905827 Eh       
DFET-embed. en.    :        0.000000000000 Eh       
CPCM Solvation Model Properties:
Surface-charge          :           -0.03604208
Charge-correction       :           -0.00011107 Eh              -0.00302 eV
Free-energy (cav+disp)  :  This term is not implemented in the current solvation scheme

---------------
SCF CONVERGENCE
---------------

  Last Energy change         ...   -3.5874e-08  Tolerance :   1.0000e-08
  Last MAX-Density change    ...    4.4022e-05  Tolerance :   1.0000e-07
  Last RMS-Density change    ...    2.6899e-07  Tolerance :   5.0000e-09
  Last Orbital Gradient      ...    2.1284e-06  Tolerance :   1.0000e-05
  Last Orbital Rotation      ...    7.4614e-06  Tolerance :   1.0000e-05

             **** THE GBW FILE WAS UPDATED (Aldol-OH_sp.gbw) ****
             **** DENSITY Aldol-OH_sp.scfp WAS UPDATED ****
             **** ENERGY FILE WAS UPDATED (Aldol-OH_sp.en.tmp) ****
             **** THE GBW FILE WAS UPDATED (Aldol-OH_sp.gbw) ****
             **** DENSITY Aldol-OH_sp.scfp WAS UPDATED ****
----------------
ORBITAL ENERGIES
----------------

  NO   OCC          E(Eh)            E(eV) 
   0   2.0000     -19.345724      -526.4239 
   1   2.0000     -19.334496      -526.1184 
   2   2.0000     -19.303515      -525.2754 
   3   2.0000     -19.293799      -525.0109 
   4   2.0000     -19.289457      -524.8928 
   5   2.0000     -10.435405      -283.9618 
   6   2.0000     -10.406815      -283.1838 
   7   2.0000     -10.374165      -282.2954 
   8   2.0000     -10.363527      -282.0059 
   9   2.0000     -10.347297      -281.5643 
  10   2.0000     -10.346710      -281.5483 
  11   2.0000     -10.324622      -280.9473 
  12   2.0000     -10.322804      -280.8978 
  13   2.0000     -10.322216      -280.8818 
  14   2.0000     -10.315573      -280.7010 
  15   2.0000     -10.314756      -280.6788 
  16   2.0000     -10.314696      -280.6771 
  17   2.0000     -10.313968      -280.6573 
  18   2.0000     -10.313482      -280.6441 
  19   2.0000     -10.312795      -280.6254 
  20   2.0000     -10.312322      -280.6126 
  21   2.0000     -10.309723      -280.5418 
  22   2.0000     -10.307175      -280.4725 
  23   2.0000      -1.136855       -30.9354 
  24   2.0000      -1.100499       -29.9461 
  25   2.0000      -1.088582       -29.6218 
  26   2.0000      -1.050568       -28.5874 
  27   2.0000      -1.049110       -28.5477 
  28   2.0000      -0.898121       -24.4391 
  29   2.0000      -0.895105       -24.3570 
  30   2.0000      -0.829468       -22.5710 
  31   2.0000      -0.805802       -21.9270 
  32   2.0000      -0.791966       -21.5505 
  33   2.0000      -0.781278       -21.2597 
  34   2.0000      -0.778958       -21.1965 
  35   2.0000      -0.746426       -20.3113 
  36   2.0000      -0.724490       -19.7144 
  37   2.0000      -0.696968       -18.9655 
  38   2.0000      -0.659367       -17.9423 
  39   2.0000      -0.640147       -17.4193 
  40   2.0000      -0.633107       -17.2277 
  41   2.0000      -0.621794       -16.9199 
  42   2.0000      -0.587318       -15.9817 
  43   2.0000      -0.580395       -15.7934 
  44   2.0000      -0.558470       -15.1967 
  45   2.0000      -0.550724       -14.9860 
  46   2.0000      -0.539146       -14.6709 
  47   2.0000      -0.514777       -14.0078 
  48   2.0000      -0.512341       -13.9415 
  49   2.0000      -0.506120       -13.7722 
  50   2.0000      -0.505397       -13.7526 
  51   2.0000      -0.503586       -13.7033 
  52   2.0000      -0.491595       -13.3770 
  53   2.0000      -0.485690       -13.2163 
  54   2.0000      -0.474117       -12.9014 
  55   2.0000      -0.470192       -12.7946 
  56   2.0000      -0.468431       -12.7467 
  57   2.0000      -0.463084       -12.6012 
  58   2.0000      -0.454479       -12.3670 
  59   2.0000      -0.445545       -12.1239 
  60   2.0000      -0.441767       -12.0211 
  61   2.0000      -0.434202       -11.8152 
  62   2.0000      -0.427728       -11.6391 
  63   2.0000      -0.426996       -11.6192 
  64   2.0000      -0.409741       -11.1496 
  65   2.0000      -0.398519       -10.8443 
  66   2.0000      -0.395438       -10.7604 
  67   2.0000      -0.390020       -10.6130 
  68   2.0000      -0.386728       -10.5234 
  69   2.0000      -0.383935       -10.4474 
  70   2.0000      -0.383672       -10.4402 
  71   2.0000      -0.368152       -10.0179 
  72   2.0000      -0.358160        -9.7460 
  73   2.0000      -0.356672        -9.7055 
  74   2.0000      -0.350447        -9.5362 
  75   2.0000      -0.332045        -9.0354 
  76   2.0000      -0.310164        -8.4400 
  77   2.0000      -0.306045        -8.3279 
  78   2.0000      -0.294763        -8.0209 
  79   2.0000      -0.285885        -7.7793 
  80   2.0000      -0.280742        -7.6394 
  81   2.0000      -0.271790        -7.3958 
  82   2.0000      -0.253388        -6.8950 
  83   0.0000      -0.071935        -1.9575 
  84   0.0000      -0.053793        -1.4638 
  85   0.0000      -0.016130        -0.4389 
  86   0.0000      -0.011793        -0.3209 
  87   0.0000       0.022410         0.6098 
  88   0.0000       0.030116         0.8195 
  89   0.0000       0.032349         0.8803 
  90   0.0000       0.035830         0.9750 
  91   0.0000       0.041911         1.1404 
  92   0.0000       0.046207         1.2574 
  93   0.0000       0.051887         1.4119 
  94   0.0000       0.052731         1.4349 
  95   0.0000       0.056990         1.5508 
  96   0.0000       0.065715         1.7882 
  97   0.0000       0.070845         1.9278 
  98   0.0000       0.073826         2.0089 
  99   0.0000       0.075667         2.0590 
 100   0.0000       0.080994         2.2040 
 101   0.0000       0.087239         2.3739 
 102   0.0000       0.089019         2.4223 
 103   0.0000       0.092722         2.5231 
 104   0.0000       0.094825         2.5803 
 105   0.0000       0.098071         2.6686 
 106   0.0000       0.104923         2.8551 
 107   0.0000       0.109498         2.9796 
 108   0.0000       0.115134         3.1329 
 109   0.0000       0.121755         3.3131 
 110   0.0000       0.124433         3.3860 
 111   0.0000       0.126597         3.4449 
 112   0.0000       0.131989         3.5916 
 113   0.0000       0.138934         3.7806 
 114   0.0000       0.141015         3.8372 
 115   0.0000       0.143931         3.9166 
 116   0.0000       0.149077         4.0566 
 117   0.0000       0.151501         4.1225 
 118   0.0000       0.153760         4.1840 
 119   0.0000       0.158767         4.3203 
 120   0.0000       0.160798         4.3755 
 121   0.0000       0.161417         4.3924 
 122   0.0000       0.166271         4.5245 
 123   0.0000       0.170851         4.6491 
 124   0.0000       0.173514         4.7216 
 125   0.0000       0.179877         4.8947 
 126   0.0000       0.185802         5.0559 
 127   0.0000       0.187788         5.1100 
 128   0.0000       0.197835         5.3834 
 129   0.0000       0.200659         5.4602 
 130   0.0000       0.202228         5.5029 
 131   0.0000       0.203513         5.5379 
 132   0.0000       0.205897         5.6027 
 133   0.0000       0.211047         5.7429 
 134   0.0000       0.219737         5.9794 
 135   0.0000       0.221717         6.0332 
 136   0.0000       0.224427         6.1070 
 137   0.0000       0.225459         6.1351 
 138   0.0000       0.230997         6.2857 
 139   0.0000       0.234611         6.3841 
 140   0.0000       0.238396         6.4871 
 141   0.0000       0.240902         6.5553 
 142   0.0000       0.242682         6.6037 
 143   0.0000       0.245109         6.6697 
 144   0.0000       0.249645         6.7932 
 145   0.0000       0.253654         6.9023 
 146   0.0000       0.261124         7.1056 
 147   0.0000       0.264161         7.1882 
 148   0.0000       0.268067         7.2945 
 149   0.0000       0.272217         7.4074 
 150   0.0000       0.273471         7.4415 
 151   0.0000       0.277078         7.5397 
 152   0.0000       0.280393         7.6299 
 153   0.0000       0.284489         7.7413 
 154   0.0000       0.288713         7.8563 
 155   0.0000       0.292978         7.9723 
 156   0.0000       0.293906         7.9976 
 157   0.0000       0.295691         8.0461 
 158   0.0000       0.298982         8.1357 
 159   0.0000       0.299582         8.1520 
 160   0.0000       0.306536         8.3413 
 161   0.0000       0.310446         8.4477 
 162   0.0000       0.315963         8.5978 
 163   0.0000       0.318844         8.6762 
 164   0.0000       0.321756         8.7554 
 165   0.0000       0.323250         8.7961 
 166   0.0000       0.325397         8.8545 
 167   0.0000       0.327266         8.9054 
 168   0.0000       0.328834         8.9480 
 169   0.0000       0.329829         8.9751 
 170   0.0000       0.334561         9.1039 
 171   0.0000       0.335282         9.1235 
 172   0.0000       0.338997         9.2246 
 173   0.0000       0.340394         9.2626 
 174   0.0000       0.343094         9.3361 
 175   0.0000       0.346280         9.4228 
 176   0.0000       0.351067         9.5530 
 177   0.0000       0.351758         9.5718 
 178   0.0000       0.357202         9.7199 
 179   0.0000       0.360215         9.8019 
 180   0.0000       0.362476         9.8635 
 181   0.0000       0.365374         9.9423 
 182   0.0000       0.370577        10.0839 
 183   0.0000       0.373861        10.1733 
 184   0.0000       0.375954        10.2302 
 185   0.0000       0.383357        10.4317 
 186   0.0000       0.387413        10.5420 
 187   0.0000       0.393424        10.7056 
 188   0.0000       0.396192        10.7809 
 189   0.0000       0.402844        10.9619 
 190   0.0000       0.406303        11.0561 
 191   0.0000       0.408875        11.1260 
 192   0.0000       0.411418        11.1953 
 193   0.0000       0.415407        11.3038 
 194   0.0000       0.423144        11.5143 
 195   0.0000       0.428064        11.6482 
 196   0.0000       0.429203        11.6792 
 197   0.0000       0.438366        11.9286 
 198   0.0000       0.439214        11.9516 
 199   0.0000       0.443756        12.0752 
 200   0.0000       0.446154        12.1405 
 201   0.0000       0.448156        12.1949 
 202   0.0000       0.450718        12.2647 
 203   0.0000       0.459798        12.5117 
 204   0.0000       0.462207        12.5773 
 205   0.0000       0.463791        12.6204 
 206   0.0000       0.473242        12.8776 
 207   0.0000       0.475161        12.9298 
 208   0.0000       0.476649        12.9703 
 209   0.0000       0.481502        13.1023 
 210   0.0000       0.485549        13.2125 
 211   0.0000       0.489091        13.3089 
 212   0.0000       0.491995        13.3879 
 213   0.0000       0.495109        13.4726 
 214   0.0000       0.497585        13.5400 
 215   0.0000       0.503639        13.7047 
 216   0.0000       0.505110        13.7448 
 217   0.0000       0.507767        13.8170 
 218   0.0000       0.512752        13.9527 
 219   0.0000       0.516475        14.0540 
 220   0.0000       0.519855        14.1460 
 221   0.0000       0.522615        14.2211 
 222   0.0000       0.528979        14.3943 
 223   0.0000       0.534525        14.5452 
 224   0.0000       0.537229        14.6188 
 225   0.0000       0.541755        14.7419 
 226   0.0000       0.542944        14.7742 
 227   0.0000       0.548527        14.9262 
 228   0.0000       0.554869        15.0988 
 229   0.0000       0.557189        15.1619 
 230   0.0000       0.558606        15.2004 
 231   0.0000       0.564188        15.3523 
 232   0.0000       0.566046        15.4029 
 233   0.0000       0.570988        15.5374 
 234   0.0000       0.577039        15.7020 
 235   0.0000       0.578214        15.7340 
 236   0.0000       0.581741        15.8300 
 237   0.0000       0.587340        15.9823 
 238   0.0000       0.593497        16.1499 
 239   0.0000       0.598300        16.2806 
 240   0.0000       0.606499        16.5037 
 241   0.0000       0.609099        16.5744 
 242   0.0000       0.613222        16.6866 
 243   0.0000       0.616580        16.7780 
 244   0.0000       0.621439        16.9102 
 245   0.0000       0.626012        17.0347 
 246   0.0000       0.633040        17.2259 
 247   0.0000       0.634155        17.2562 
 248   0.0000       0.641575        17.4582 
 249   0.0000       0.645721        17.5710 
 250   0.0000       0.648345        17.6424 
 251   0.0000       0.650715        17.7069 
 252   0.0000       0.660220        17.9655 
 253   0.0000       0.660938        17.9850 
 254   0.0000       0.669928        18.2297 
 255   0.0000       0.680617        18.5205 
 256   0.0000       0.685305        18.6481 
 257   0.0000       0.688470        18.7342 
 258   0.0000       0.689462        18.7612 
 259   0.0000       0.696253        18.9460 
 260   0.0000       0.698989        19.0205 
 261   0.0000       0.701653        19.0929 
 262   0.0000       0.707192        19.2437 
 263   0.0000       0.710246        19.3268 
 264   0.0000       0.715488        19.4694 
 265   0.0000       0.717648        19.5282 
 266   0.0000       0.719124        19.5684 
 267   0.0000       0.725263        19.7354 
 268   0.0000       0.726664        19.7735 
 269   0.0000       0.731807        19.9135 
 270   0.0000       0.736362        20.0374 
 271   0.0000       0.738645        20.0996 
 272   0.0000       0.739345        20.1186 
 273   0.0000       0.748472        20.3670 
 274   0.0000       0.751244        20.4424 
 275   0.0000       0.755586        20.5605 
 276   0.0000       0.762608        20.7516 
 277   0.0000       0.765130        20.8202 
 278   0.0000       0.767105        20.8740 
 279   0.0000       0.773568        21.0499 
 280   0.0000       0.774979        21.0882 
 281   0.0000       0.777045        21.1445 
 282   0.0000       0.781918        21.2771 
 283   0.0000       0.783737        21.3266 
 284   0.0000       0.790080        21.4992 
 285   0.0000       0.799871        21.7656 
 286   0.0000       0.803724        21.8705 
 287   0.0000       0.809550        22.0290 
 288   0.0000       0.812342        22.1049 
 289   0.0000       0.816323        22.2133 
 290   0.0000       0.818054        22.2604 
 291   0.0000       0.822536        22.3823 
 292   0.0000       0.823184        22.4000 
 293   0.0000       0.826618        22.4934 
 294   0.0000       0.831544        22.6275 
 295   0.0000       0.835825        22.7439 
 296   0.0000       0.841149        22.8888 
 297   0.0000       0.843573        22.9548 
 298   0.0000       0.847740        23.0682 
 299   0.0000       0.849865        23.1260 
 300   0.0000       0.852088        23.1865 
 301   0.0000       0.856203        23.2985 
 302   0.0000       0.858060        23.3490 
 303   0.0000       0.863519        23.4976 
 304   0.0000       0.863694        23.5023 
 305   0.0000       0.868558        23.6347 
 306   0.0000       0.874870        23.8064 
 307   0.0000       0.879071        23.9207 
 308   0.0000       0.881544        23.9880 
 309   0.0000       0.884517        24.0689 
 310   0.0000       0.893300        24.3079 
 311   0.0000       0.896250        24.3882 
 312   0.0000       0.898039        24.4369 
 313   0.0000       0.902048        24.5460 
 314   0.0000       0.906982        24.6802 
 315   0.0000       0.911412        24.8008 
 316   0.0000       0.913418        24.8554 
 317   0.0000       0.919342        25.0166 
 318   0.0000       0.921106        25.0646 
 319   0.0000       0.925715        25.1900 
 320   0.0000       0.933201        25.3937 
 321   0.0000       0.934363        25.4253 
 322   0.0000       0.939393        25.5622 
 323   0.0000       0.943092        25.6628 
 324   0.0000       0.946335        25.7511 
 325   0.0000       0.953001        25.9325 
 326   0.0000       0.955215        25.9927 
 327   0.0000       0.961636        26.1674 
 328   0.0000       0.962882        26.2014 
 329   0.0000       0.969993        26.3949 
 330   0.0000       0.970523        26.4093 
 331   0.0000       0.974113        26.5070 
 332   0.0000       0.982865        26.7451 
 333   0.0000       0.989705        26.9312 
 334   0.0000       0.991345        26.9759 
 335   0.0000       0.996322        27.1113 
 336   0.0000       0.996983        27.1293 
 337   0.0000       1.001731        27.2585 
 338   0.0000       1.005411        27.3586 
 339   0.0000       1.009165        27.4608 
 340   0.0000       1.009351        27.4658 
 341   0.0000       1.012869        27.5616 
 342   0.0000       1.016510        27.6606 
 343   0.0000       1.019651        27.7461 
 344   0.0000       1.021903        27.8074 
 345   0.0000       1.029626        28.0176 
 346   0.0000       1.034262        28.1437 
 347   0.0000       1.038423        28.2569 
 348   0.0000       1.041441        28.3391 
 349   0.0000       1.046899        28.4876 
 350   0.0000       1.052388        28.6369 
 351   0.0000       1.057058        28.7640 
 352   0.0000       1.062181        28.9034 
 353   0.0000       1.063904        28.9503 
 354   0.0000       1.065939        29.0057 
 355   0.0000       1.066421        29.0188 
 356   0.0000       1.070019        29.1167 
 357   0.0000       1.073678        29.2163 
 358   0.0000       1.077134        29.3103 
 359   0.0000       1.081925        29.4407 
 360   0.0000       1.084630        29.5143 
 361   0.0000       1.088771        29.6270 
 362   0.0000       1.093095        29.7446 
 363   0.0000       1.099199        29.9107 
 364   0.0000       1.103676        30.0326 
 365   0.0000       1.112451        30.2713 
 366   0.0000       1.114792        30.3350 
 367   0.0000       1.119374        30.4597 
 368   0.0000       1.125638        30.6302 
 369   0.0000       1.131739        30.7962 
 370   0.0000       1.137810        30.9614 
 371   0.0000       1.139996        31.0209 
 372   0.0000       1.145158        31.1613 
 373   0.0000       1.152746        31.3678 
 374   0.0000       1.155687        31.4478 
 375   0.0000       1.157306        31.4919 
 376   0.0000       1.169155        31.8143 
 377   0.0000       1.170159        31.8416 
 378   0.0000       1.171370        31.8746 
 379   0.0000       1.174166        31.9507 
 380   0.0000       1.178874        32.0788 
 381   0.0000       1.181283        32.1443 
 382   0.0000       1.184718        32.2378 
 383   0.0000       1.193171        32.4678 
 384   0.0000       1.204256        32.7695 
 385   0.0000       1.210647        32.9434 
 386   0.0000       1.219896        33.1951 
 387   0.0000       1.223070        33.2814 
 388   0.0000       1.228660        33.4336 
 389   0.0000       1.240898        33.7666 
 390   0.0000       1.245415        33.8895 
 391   0.0000       1.248061        33.9615 
 392   0.0000       1.251867        34.0650 
 393   0.0000       1.264069        34.3971 
 394   0.0000       1.267424        34.4883 
 395   0.0000       1.271420        34.5971 
 396   0.0000       1.285174        34.9714 
 397   0.0000       1.285951        34.9925 
 398   0.0000       1.289467        35.0882 
 399   0.0000       1.292309        35.1655 
 400   0.0000       1.300934        35.4002 
 401   0.0000       1.305202        35.5164 
 402   0.0000       1.314624        35.7727 
 403   0.0000       1.315835        35.8057 
 404   0.0000       1.324107        36.0308 
 405   0.0000       1.326437        36.0942 
 406   0.0000       1.330243        36.1977 
 407   0.0000       1.336877        36.3783 
 408   0.0000       1.343762        36.5656 
 409   0.0000       1.346892        36.6508 
 410   0.0000       1.354178        36.8491 
 411   0.0000       1.356550        36.9136 
 412   0.0000       1.363528        37.1035 
 413   0.0000       1.365662        37.1616 
 414   0.0000       1.370914        37.3045 
 415   0.0000       1.377485        37.4833 
 416   0.0000       1.379428        37.5361 
 417   0.0000       1.393566        37.9209 
 418   0.0000       1.394619        37.9495 
 419   0.0000       1.406962        38.2854 
 420   0.0000       1.410562        38.3834 
 421   0.0000       1.413240        38.4562 
 422   0.0000       1.423944        38.7475 
 423   0.0000       1.431015        38.9399 
 424   0.0000       1.436813        39.0977 
 425   0.0000       1.439686        39.1758 
 426   0.0000       1.446247        39.3544 
 427   0.0000       1.455562        39.6079 
 428   0.0000       1.458131        39.6778 
 429   0.0000       1.464725        39.8572 
 430   0.0000       1.471342        40.0373 
 431   0.0000       1.476491        40.1774 
 432   0.0000       1.481727        40.3198 
 433   0.0000       1.483670        40.3727 
 434   0.0000       1.487635        40.4806 
 435   0.0000       1.489178        40.5226 
 436   0.0000       1.492883        40.6234 
 437   0.0000       1.494470        40.6666 
 438   0.0000       1.499956        40.8159 
 439   0.0000       1.504358        40.9357 
 440   0.0000       1.512462        41.1562 
 441   0.0000       1.522168        41.4203 
 442   0.0000       1.527517        41.5659 
 443   0.0000       1.533605        41.7315 
 444   0.0000       1.543429        41.9988 
 445   0.0000       1.551056        42.2064 
 446   0.0000       1.552219        42.2380 
 447   0.0000       1.558093        42.3979 
 448   0.0000       1.561744        42.4972 
 449   0.0000       1.565886        42.6099 
 450   0.0000       1.574346        42.8401 
 451   0.0000       1.581452        43.0335 
 452   0.0000       1.585216        43.1359 
 453   0.0000       1.595478        43.4152 
 454   0.0000       1.608339        43.7651 
 455   0.0000       1.614348        43.9287 
 456   0.0000       1.617533        44.0153 
 457   0.0000       1.622063        44.1386 
 458   0.0000       1.628258        44.3071 
 459   0.0000       1.637091        44.5475 
 460   0.0000       1.639555        44.6146 
 461   0.0000       1.640880        44.6506 
 462   0.0000       1.649237        44.8780 
 463   0.0000       1.652985        44.9800 
 464   0.0000       1.663034        45.2535 
 465   0.0000       1.665513        45.3209 
 466   0.0000       1.672460        45.5099 
 467   0.0000       1.685748        45.8715 
 468   0.0000       1.686250        45.8852 
 469   0.0000       1.693213        46.0747 
 470   0.0000       1.698632        46.2221 
 471   0.0000       1.705591        46.4115 
 472   0.0000       1.712438        46.5978 
 473   0.0000       1.717782        46.7432 
 474   0.0000       1.728168        47.0258 
 475   0.0000       1.732879        47.1540 
 476   0.0000       1.742821        47.4246 
 477   0.0000       1.744787        47.4781 
 478   0.0000       1.745969        47.5102 
 479   0.0000       1.748959        47.5916 
 480   0.0000       1.753840        47.7244 
 481   0.0000       1.758166        47.8421 
 482   0.0000       1.760790        47.9135 
 483   0.0000       1.764363        48.0108 
 484   0.0000       1.771331        48.2004 
 485   0.0000       1.778079        48.3840 
 486   0.0000       1.781244        48.4701 
 487   0.0000       1.784803        48.5670 
 488   0.0000       1.786764        48.6203 
 489   0.0000       1.787894        48.6511 
 490   0.0000       1.795478        48.8574 
 491   0.0000       1.799339        48.9625 
 492   0.0000       1.815655        49.4065 
 493   0.0000       1.818324        49.4791 
 494   0.0000       1.823657        49.6242 
 495   0.0000       1.826652        49.7057 
 496   0.0000       1.829706        49.7888 
 497   0.0000       1.836633        49.9773 
 498   0.0000       1.839535        50.0563 
 499   0.0000       1.847676        50.2778 
 500   0.0000       1.853695        50.4416 
 501   0.0000       1.855456        50.4895 
 502   0.0000       1.857874        50.5553 
 503   0.0000       1.861337        50.6496 
 504   0.0000       1.869005        50.8582 
 505   0.0000       1.870441        50.8973 
 506   0.0000       1.880552        51.1724 
 507   0.0000       1.883746        51.2593 
 508   0.0000       1.887138        51.3516 
 509   0.0000       1.888274        51.3825 
 510   0.0000       1.890905        51.4541 
 511   0.0000       1.898903        51.6718 
 512   0.0000       1.904990        51.8374 
 513   0.0000       1.906623        51.8819 
 514   0.0000       1.909967        51.9728 
 515   0.0000       1.913025        52.0560 
 516   0.0000       1.918237        52.1979 
 517   0.0000       1.919694        52.2375 
 518   0.0000       1.922563        52.3156 
 519   0.0000       1.937468        52.7212 
 520   0.0000       1.939085        52.7652 
 521   0.0000       1.940707        52.8093 
 522   0.0000       1.945846        52.9492 
 523   0.0000       1.953144        53.1477 
 524   0.0000       1.954903        53.1956 
 525   0.0000       1.959040        53.3082 
 526   0.0000       1.963949        53.4418 
 527   0.0000       1.969221        53.5852 
 528   0.0000       1.971341        53.6429 
 529   0.0000       1.975420        53.7539 
 530   0.0000       1.982810        53.9550 
 531   0.0000       1.984426        53.9990 
 532   0.0000       1.988547        54.1111 
 533   0.0000       1.994835        54.2822 
 534   0.0000       1.996539        54.3286 
 535   0.0000       2.000429        54.4344 
 536   0.0000       2.006910        54.6108 
 537   0.0000       2.014148        54.8078 
 538   0.0000       2.019258        54.9468 
 539   0.0000       2.027962        55.1837 
 540   0.0000       2.032666        55.3116 
 541   0.0000       2.036392        55.4131 
 542   0.0000       2.044113        55.6232 
 543   0.0000       2.046454        55.6868 
 544   0.0000       2.051104        55.8134 
 545   0.0000       2.053081        55.8672 
 546   0.0000       2.058494        56.0145 
 547   0.0000       2.061418        56.0940 
 548   0.0000       2.067335        56.2550 
 549   0.0000       2.069096        56.3030 
 550   0.0000       2.073889        56.4334 
 551   0.0000       2.077699        56.5371 
 552   0.0000       2.081298        56.6350 
 553   0.0000       2.084879        56.7324 
 554   0.0000       2.085882        56.7597 
 555   0.0000       2.092533        56.9407 
 556   0.0000       2.095952        57.0338 
 557   0.0000       2.102130        57.2019 
 558   0.0000       2.103115        57.2287 
 559   0.0000       2.109637        57.4062 
 560   0.0000       2.111527        57.4576 
 561   0.0000       2.113455        57.5100 
 562   0.0000       2.117037        57.6075 
 563   0.0000       2.123355        57.7794 
 564   0.0000       2.126814        57.8736 
 565   0.0000       2.129339        57.9423 
 566   0.0000       2.132448        58.0269 
 567   0.0000       2.134282        58.0768 
 568   0.0000       2.139871        58.2288 
 569   0.0000       2.151007        58.5319 
 570   0.0000       2.155155        58.6448 
 571   0.0000       2.157060        58.6966 
 572   0.0000       2.161853        58.8270 
 573   0.0000       2.165268        58.9199 
 574   0.0000       2.168499        59.0079 
 575   0.0000       2.171015        59.0763 
 576   0.0000       2.175547        59.1996 
 577   0.0000       2.177255        59.2461 
 578   0.0000       2.182631        59.3924 
 579   0.0000       2.192456        59.6598 
 580   0.0000       2.196179        59.7611 
 581   0.0000       2.198099        59.8133 
 582   0.0000       2.199326        59.8467 
 583   0.0000       2.204753        59.9944 
 584   0.0000       2.210483        60.1503 
 585   0.0000       2.213522        60.2330 
 586   0.0000       2.218185        60.3599 
 587   0.0000       2.219866        60.4056 
 588   0.0000       2.221810        60.4585 
 589   0.0000       2.225213        60.5511 
 590   0.0000       2.230232        60.6877 
 591   0.0000       2.234942        60.8159 
 592   0.0000       2.241527        60.9950 
 593   0.0000       2.253227        61.3134 
 594   0.0000       2.256033        61.3898 
 595   0.0000       2.259525        61.4848 
 596   0.0000       2.260577        61.5134 
 597   0.0000       2.265299        61.6419 
 598   0.0000       2.270625        61.7869 
 599   0.0000       2.280044        62.0432 
 600   0.0000       2.286123        62.2086 
 601   0.0000       2.290715        62.3335 
 602   0.0000       2.296574        62.4930 
 603   0.0000       2.298324        62.5406 
 604   0.0000       2.304178        62.6999 
 605   0.0000       2.308646        62.8215 
 606   0.0000       2.311635        62.9028 
 607   0.0000       2.317861        63.0722 
 608   0.0000       2.321146        63.1616 
 609   0.0000       2.322338        63.1940 
 610   0.0000       2.323921        63.2371 
 611   0.0000       2.327259        63.3279 
 612   0.0000       2.332555        63.4720 
 613   0.0000       2.338933        63.6456 
 614   0.0000       2.342850        63.7522 
 615   0.0000       2.348410        63.9035 
 616   0.0000       2.350151        63.9509 
 617   0.0000       2.361309        64.2545 
 618   0.0000       2.364720        64.3473 
 619   0.0000       2.367209        64.4150 
 620   0.0000       2.370334        64.5001 
 621   0.0000       2.378054        64.7101 
 622   0.0000       2.388041        64.9819 
 623   0.0000       2.389030        65.0088 
 624   0.0000       2.394337        65.1532 
 625   0.0000       2.399500        65.2937 
 626   0.0000       2.403797        65.4106 
 627   0.0000       2.406344        65.4799 
 628   0.0000       2.409470        65.5650 
 629   0.0000       2.412566        65.6492 
 630   0.0000       2.421583        65.8946 
 631   0.0000       2.426799        66.0366 
 632   0.0000       2.427493        66.0554 
 633   0.0000       2.434318        66.2412 
 634   0.0000       2.436845        66.3099 
 635   0.0000       2.441619        66.4398 
 636   0.0000       2.447149        66.5903 
 637   0.0000       2.452015        66.7227 
 638   0.0000       2.458385        66.8961 
 639   0.0000       2.462123        66.9978 
 640   0.0000       2.467386        67.1410 
 641   0.0000       2.473541        67.3085 
 642   0.0000       2.475796        67.3698 
 643   0.0000       2.482776        67.5598 
 644   0.0000       2.486329        67.6565 
 645   0.0000       2.488581        67.7177 
 646   0.0000       2.494652        67.8829 
 647   0.0000       2.499305        68.0095 
 648   0.0000       2.503667        68.1282 
 649   0.0000       2.510062        68.3023 
 650   0.0000       2.513287        68.3900 
 651   0.0000       2.514141        68.4132 
 652   0.0000       2.518960        68.5444 
 653   0.0000       2.526417        68.7473 
 654   0.0000       2.529878        68.8415 
 655   0.0000       2.532056        68.9007 
 656   0.0000       2.533522        68.9406 
 657   0.0000       2.539882        69.1137 
 658   0.0000       2.549035        69.3628 
 659   0.0000       2.554617        69.5147 
 660   0.0000       2.556148        69.5563 
 661   0.0000       2.560701        69.6802 
 662   0.0000       2.563004        69.7429 
 663   0.0000       2.571721        69.9801 
 664   0.0000       2.576118        70.0997 
 665   0.0000       2.578998        70.1781 
 666   0.0000       2.581111        70.2356 
 667   0.0000       2.590277        70.4850 
 668   0.0000       2.592516        70.5459 
 669   0.0000       2.598288        70.7030 
 670   0.0000       2.603380        70.8416 
 671   0.0000       2.608069        70.9692 
 672   0.0000       2.615270        71.1651 
 673   0.0000       2.617474        71.2251 
 674   0.0000       2.621082        71.3233 
 675   0.0000       2.625490        71.4432 
 676   0.0000       2.629884        71.5628 
 677   0.0000       2.632165        71.6248 
 678   0.0000       2.638311        71.7921 
 679   0.0000       2.641593        71.8814 
 680   0.0000       2.646283        72.0090 
 681   0.0000       2.650953        72.1361 
 682   0.0000       2.657401        72.3116 
 683   0.0000       2.659600        72.3714 
 684   0.0000       2.663152        72.4681 
 685   0.0000       2.668540        72.6147 
 686   0.0000       2.670824        72.6768 
 687   0.0000       2.674618        72.7800 
 688   0.0000       2.680355        72.9362 
 689   0.0000       2.681602        72.9701 
 690   0.0000       2.686997        73.1169 
 691   0.0000       2.687789        73.1385 
 692   0.0000       2.693803        73.3021 
 693   0.0000       2.696753        73.3824 
 694   0.0000       2.703544        73.5672 
 695   0.0000       2.707940        73.6868 
 696   0.0000       2.711760        73.7907 
 697   0.0000       2.717056        73.9348 
 698   0.0000       2.722670        74.0876 
 699   0.0000       2.726130        74.1818 
 700   0.0000       2.732792        74.3630 
 701   0.0000       2.736324        74.4592 
 702   0.0000       2.739664        74.5501 
 703   0.0000       2.747175        74.7544 
 704   0.0000       2.752062        74.8874 
 705   0.0000       2.757156        75.0260 
 706   0.0000       2.757970        75.0482 
 707   0.0000       2.760155        75.1076 
 708   0.0000       2.773505        75.4709 
 709   0.0000       2.779574        75.6360 
 710   0.0000       2.782538        75.7167 
 711   0.0000       2.789023        75.8932 
 712   0.0000       2.790652        75.9375 
 713   0.0000       2.796408        76.0941 
 714   0.0000       2.800074        76.1939 
 715   0.0000       2.802539        76.2610 
 716   0.0000       2.807954        76.4083 
 717   0.0000       2.812130        76.5219 
 718   0.0000       2.817445        76.6666 
 719   0.0000       2.826855        76.9226 
 720   0.0000       2.829764        77.0018 
 721   0.0000       2.833413        77.1011 
 722   0.0000       2.844306        77.3975 
 723   0.0000       2.845372        77.4265 
 724   0.0000       2.847834        77.4935 
 725   0.0000       2.855524        77.7027 
 726   0.0000       2.855812        77.7106 
 727   0.0000       2.863292        77.9141 
 728   0.0000       2.867951        78.0409 
 729   0.0000       2.872361        78.1609 
 730   0.0000       2.874735        78.2255 
 731   0.0000       2.876296        78.2680 
 732   0.0000       2.880260        78.3759 
 733   0.0000       2.888038        78.5875 
 734   0.0000       2.894287        78.7576 
 735   0.0000       2.896948        78.8300 
 736   0.0000       2.904273        79.0293 
 737   0.0000       2.908046        79.1320 
 738   0.0000       2.917508        79.3894 
 739   0.0000       2.922918        79.5366 
 740   0.0000       2.928807        79.6969 
 741   0.0000       2.933488        79.8243 
 742   0.0000       2.936595        79.9088 
 743   0.0000       2.942560        80.0711 
 744   0.0000       2.945719        80.1571 
 745   0.0000       2.954397        80.3932 
 746   0.0000       2.962532        80.6146 
 747   0.0000       2.966962        80.7351 
 748   0.0000       2.972917        80.8972 
 749   0.0000       2.973888        80.9236 
 750   0.0000       2.977495        81.0218 
 751   0.0000       2.987372        81.2905 
 752   0.0000       2.993609        81.4603 
 753   0.0000       3.007546        81.8395 
 754   0.0000       3.010672        81.9245 
 755   0.0000       3.015369        82.0524 
 756   0.0000       3.021679        82.2241 
 757   0.0000       3.026212        82.3474 
 758   0.0000       3.032135        82.5086 
 759   0.0000       3.037230        82.6472 
 760   0.0000       3.040441        82.7346 
 761   0.0000       3.044585        82.8474 
 762   0.0000       3.046106        82.8888 
 763   0.0000       3.052251        83.0560 
 764   0.0000       3.060284        83.2746 
 765   0.0000       3.068682        83.5031 
 766   0.0000       3.071299        83.5743 
 767   0.0000       3.081943        83.8639 
 768   0.0000       3.092521        84.1518 
 769   0.0000       3.098844        84.3238 
 770   0.0000       3.103014        84.4373 
 771   0.0000       3.114722        84.7559 
 772   0.0000       3.118145        84.8490 
 773   0.0000       3.129317        85.1530 
 774   0.0000       3.134324        85.2893 
 775   0.0000       3.144714        85.5720 
 776   0.0000       3.147603        85.6506 
 777   0.0000       3.151658        85.7610 
 778   0.0000       3.158521        85.9477 
 779   0.0000       3.166394        86.1620 
 780   0.0000       3.168190        86.2108 
 781   0.0000       3.179413        86.5162 
 782   0.0000       3.188638        86.7672 
 783   0.0000       3.191719        86.8511 
 784   0.0000       3.203046        87.1593 
[...]
      g+1     :     0.001556
      g-1     :     0.001344
      g+2     :     0.000524
      g-2     :     0.001911
      g+3     :     0.000616
      g-3     :     0.000962
      g+4     :     0.000910
      g-4     :     0.001309
 26 C s       :     2.580989  s :     2.580989
      pz      :     1.000341  p :     2.748340
      px      :     0.879128
      py      :     0.868871
      dz2     :     0.171112  d :     0.624474
      dxz     :     0.149305
      dyz     :     0.141567
      dx2y2   :     0.066226
      dxy     :     0.096265
      f0      :     0.030762  f :     0.151362
      f+1     :     0.022967
      f-1     :     0.028090
      f+2     :     0.021613
      f-2     :     0.022959
      f+3     :     0.012756
      f-3     :     0.012215
      g0      :     0.002272  g :     0.014175
      g+1     :     0.002042
      g-1     :     0.002207
      g+2     :     0.001049
      g-2     :     0.002001
      g+3     :     0.001285
      g-3     :     0.001484
      g+4     :     0.000919
      g-4     :     0.000916
 27 C s       :     2.585420  s :     2.585420
      pz      :     0.947499  p :     2.683434
      px      :     0.879837
      py      :     0.856098
      dz2     :     0.129528  d :     0.505082
      dxz     :     0.108352
      dyz     :     0.083804
      dx2y2   :     0.097595
      dxy     :     0.085802
      f0      :     0.019798  f :     0.114636
      f+1     :     0.016781
      f-1     :     0.016485
      f+2     :     0.018268
      f-2     :     0.019568
      f+3     :     0.013096
      f-3     :     0.010640
      g0      :     0.001002  g :     0.011470
      g+1     :     0.001433
      g-1     :     0.001265
      g+2     :     0.000706
      g-2     :     0.001714
      g+3     :     0.001211
      g-3     :     0.001697
      g+4     :     0.001056
      g-4     :     0.001385
 28 H s       :     0.781231  s :     0.781231
      pz      :     0.067600  p :     0.187694
      px      :     0.056769
      py      :     0.063325
      dz2     :     0.019497  d :     0.064716
      dxz     :     0.012112
      dyz     :     0.012829
      dx2y2   :     0.010487
      dxy     :     0.009790
      f0      :     0.001728  f :     0.009518
      f+1     :     0.001263
      f-1     :     0.001836
      f+2     :     0.001758
      f-2     :     0.001632
      f+3     :     0.000610
      f-3     :     0.000691
 29 H s       :     0.781590  s :     0.781590
      pz      :     0.089955  p :     0.194196
      px      :     0.054292
      py      :     0.049949
      dz2     :     0.020640  d :     0.065540
      dxz     :     0.019448
      dyz     :     0.019924
      dx2y2   :     0.002487
      dxy     :     0.003041
      f0      :     0.003107  f :     0.009617
      f+1     :     0.002517
      f-1     :     0.002478
      f+2     :     0.000678
      f-2     :     0.000753
      f+3     :     0.000039
      f-3     :     0.000045
 30 H s       :     0.782689  s :     0.782689
      pz      :     0.069026  p :     0.192629
      px      :     0.059134
      py      :     0.064470
      dz2     :     0.019898  d :     0.065331
      dxz     :     0.012241
      dyz     :     0.012994
      dx2y2   :     0.010157
      dxy     :     0.010040
      f0      :     0.001784  f :     0.009563
      f+1     :     0.001302
      f-1     :     0.001831
      f+2     :     0.001708
      f-2     :     0.001665
      f+3     :     0.000606
      f-3     :     0.000668
 31 H s       :     0.781339  s :     0.781339
      pz      :     0.089844  p :     0.190216
      px      :     0.052996
      py      :     0.047375
      dz2     :     0.020658  d :     0.064762
      dxz     :     0.019063
      dyz     :     0.019473
      dx2y2   :     0.002578
      dxy     :     0.002988
      f0      :     0.003102  f :     0.009537
      f+1     :     0.002460
      f-1     :     0.002404
      f+2     :     0.000703
      f-2     :     0.000781
      f+3     :     0.000037
      f-3     :     0.000050
 32 C s       :     2.621051  s :     2.621051
      pz      :     0.961991  p :     2.592533
      px      :     0.839238
      py      :     0.791304
      dz2     :     0.325333  d :     1.130166
      dxz     :     0.290318
      dyz     :     0.295398
      dx2y2   :     0.115726
      dxy     :     0.103391
      f0      :     0.087920  f :     0.350107
      f+1     :     0.060650
      f-1     :     0.068324
      f+2     :     0.054516
      f-2     :     0.050124
      f+3     :     0.015044
      f-3     :     0.013528
      g0      :     0.010506  g :     0.048180
      g+1     :     0.007248
      g-1     :     0.008639
      g+2     :     0.005315
      g-2     :     0.006904
      g+3     :     0.003252
      g-3     :     0.003901
      g+4     :     0.001012
      g-4     :     0.001403
 33 O s       :     3.093099  s :     3.093099
      pz      :     1.478494  p :     4.199400
      px      :     1.355420
      py      :     1.365486
      dz2     :     0.034283  d :     0.178139
      dxz     :     0.036599
      dyz     :     0.039023
      dx2y2   :     0.032513
      dxy     :     0.035720
      f0      :     0.005660  f :     0.027520
      f+1     :     0.003505
      f-1     :     0.004134
      f+2     :     0.003389
      f-2     :     0.004722
      f+3     :     0.003675
      f-3     :     0.002436
      g0      :     0.000087  g :     0.000908
      g+1     :     0.000075
      g-1     :     0.000108
      g+2     :     0.000081
      g-2     :     0.000111
      g+3     :     0.000119
      g-3     :     0.000112
      g+4     :     0.000105
      g-4     :     0.000110
 34 C s       :     2.577812  s :     2.577812
      pz      :     0.982883  p :     2.671904
      px      :     0.821290
      py      :     0.867731
      dz2     :     0.060342  d :     0.496665
      dxz     :     0.090985
      dyz     :     0.120162
      dx2y2   :     0.095519
      dxy     :     0.129656
      f0      :     0.018180  f :     0.142996
      f+1     :     0.015570
      f-1     :     0.013129
      f+2     :     0.008868
      f-2     :     0.026615
      f+3     :     0.032089
      f-3     :     0.028546
      g0      :     0.001029  g :     0.013123
      g+1     :     0.001349
      g-1     :     0.000906
      g+2     :     0.000323
      g-2     :     0.001497
      g+3     :     0.001026
      g-3     :     0.001702
      g+4     :     0.002132
      g-4     :     0.003158
 35 H s       :     0.802894  s :     0.802894
      pz      :     0.073498  p :     0.186020
      px      :     0.045823
      py      :     0.066699
      dz2     :     0.020006  d :     0.064096
      dxz     :     0.008492
      dyz     :     0.013684
      dx2y2   :     0.008782
      dxy     :     0.013132
      f0      :     0.001284  f :     0.008998
      f+1     :     0.000773
      f-1     :     0.002245
      f+2     :     0.001618
      f-2     :     0.001454
      f+3     :     0.000918
      f-3     :     0.000708
 36 H s       :     0.802748  s :     0.802748
      pz      :     0.061952  p :     0.186070
      px      :     0.068540
      py      :     0.055579
      dz2     :     0.011810  d :     0.064116
      dxz     :     0.013870
      dyz     :     0.009860
      dx2y2   :     0.013739
      dxy     :     0.014836
      f0      :     0.000672  f :     0.009001
      f+1     :     0.001689
      f-1     :     0.000986
      f+2     :     0.001010
      f-2     :     0.001624
      f+3     :     0.001588
      f-3     :     0.001433
 37 H s       :     0.804138  s :     0.804138
      pz      :     0.083916  p :     0.187234
      px      :     0.047882
      py      :     0.055436
      dz2     :     0.018002  d :     0.064904
      dxz     :     0.016998
      dyz     :     0.018377
      dx2y2   :     0.004838
      dxy     :     0.006688
      f0      :     0.001865  f :     0.009166
      f+1     :     0.001864
      f-1     :     0.002150
      f+2     :     0.001382
      f-2     :     0.001496
      f+3     :     0.000217
      f-3     :     0.000194
 38 O s       :     3.258541  s :     3.258541
      pz      :     1.498063  p :     4.341010
      px      :     1.430576
      py      :     1.412370
      dz2     :     0.036685  d :     0.094768
      dxz     :     0.028143
      dyz     :     0.022937
      dx2y2   :     0.003283
      dxy     :     0.003721
      f0      :     0.007202  f :     0.020833
      f+1     :     0.005294
      f-1     :     0.004706
      f+2     :     0.001499
      f-2     :     0.001891
      f+3     :     0.000101
      f-3     :     0.000139
      g0      :     0.000381  g :     0.001146
      g+1     :     0.000268
      g-1     :     0.000194
      g+2     :     0.000116
      g-2     :     0.000142
      g+3     :     0.000014
      g-3     :     0.000029
      g+4     :     0.000001
      g-4     :     0.000002
 39 H s       :     0.746664  s :     0.746664
      pz      :     0.063220  p :     0.191006
      px      :     0.046710
      py      :     0.081077
      dz2     :     0.019292  d :     0.069380
      dxz     :     0.005330
      dyz     :     0.014060
      dx2y2   :     0.011330
      dxy     :     0.019368
      f0      :     0.000916  f :     0.009454
      f+1     :     0.000039
      f-1     :     0.002821
      f+2     :     0.001454
      f-2     :     0.001451
      f+3     :     0.001802
      f-3     :     0.000972
 40 H s       :     0.748219  s :     0.748219
      pz      :     0.089212  p :     0.192220
      px      :     0.045960
      py      :     0.057049
      dz2     :     0.019602  d :     0.069329
      dxz     :     0.020718
      dyz     :     0.023989
      dx2y2   :     0.001197
      dxy     :     0.003822
      f0      :     0.002899  f :     0.009570
      f+1     :     0.002355
      f-1     :     0.002896
      f+2     :     0.000391
      f-2     :     0.000952
      f+3     :     0.000057
      f-3     :     0.000019


                      *****************************
                      * MAYER POPULATION ANALYSIS *
                      *****************************

  NA   - Mulliken gross atomic population
  ZA   - Total nuclear charge
  QA   - Mulliken gross atomic charge
  VA   - Mayer's total valence
  BVA  - Mayer's bonded valence
  FA   - Mayer's free valence

  ATOM       NA         ZA         QA         VA         BVA        FA
  0 C      5.8975     6.0000     0.1025     3.9616     3.9616     0.0000
  1 C      6.0752     6.0000    -0.0752     3.7725     3.7725     0.0000
  2 C      6.2054     6.0000    -0.2054     3.9134     3.9134     0.0000
  3 C      6.0852     6.0000    -0.0852     3.7870     3.7870     0.0000
  4 C      5.9491     6.0000     0.0509     3.7342     3.7342     0.0000
  5 C      6.0454     6.0000    -0.0454     3.6963     3.6963    -0.0000
  6 O      8.3664     8.0000    -0.3664     2.0839     2.0839     0.0000
  7 C      6.0801     6.0000    -0.0801     3.8117     3.8117     0.0000
  8 H      0.8901     1.0000     0.1099     0.9839     0.9839     0.0000
  9 H      0.8678     1.0000     0.1322     0.9807     0.9807    -0.0000
 10 H      0.8898     1.0000     0.1102     0.9840     0.9840     0.0000
 11 C      5.8212     6.0000     0.1788     3.9469     3.9469     0.0000
 12 H      0.8835     1.0000     0.1165     1.0125     1.0125    -0.0000
 13 H      0.8759     1.0000     0.1241     0.9958     0.9958     0.0000
 14 H      0.8673     1.0000     0.1327     0.9816     0.9816     0.0000
 15 H      0.8834     1.0000     0.1166     0.9965     0.9965     0.0000
 16 O      8.3975     8.0000    -0.3975     2.0839     2.0839     0.0000
 17 C      6.0464     6.0000    -0.0464     3.6338     3.6338    -0.0000
 18 C      5.9755     6.0000     0.0245     4.0150     4.0150    -0.0000
 19 O      8.4729     8.0000    -0.4729     1.9724     1.9724     0.0000
 20 C      5.8711     6.0000     0.1289     3.6731     3.6731     0.0000
 21 H      0.8778     1.0000     0.1222     0.9499     0.9499    -0.0000
 22 C      6.1779     6.0000    -0.1779     3.8383     3.8383    -0.0000
 23 H      0.7341     1.0000     0.2659     1.0227     1.0227     0.0000
 24 C      6.1801     6.0000    -0.1801     3.8294     3.8294    -0.0000
 25 C      6.1069     6.0000    -0.1069     3.8000     3.8000    -0.0000
 26 C      5.9783     6.0000     0.0217     3.7249     3.7249     0.0000
 27 C      6.1063     6.0000    -0.1063     3.7964     3.7964    -0.0000
 28 H      0.8789     1.0000     0.1211     0.9905     0.9905    -0.0000
 29 H      0.8812     1.0000     0.1188     1.0156     1.0156    -0.0000
 30 H      0.8742     1.0000     0.1258     0.9948     0.9948    -0.0000
 31 H      0.8743     1.0000     0.1257     0.9991     0.9991    -0.0000
 32 C      5.6382     6.0000     0.3618     4.1543     4.1543    -0.0000
 33 O      8.3517     8.0000    -0.3517     2.1476     2.1476     0.0000
 34 C      6.0854     6.0000    -0.0854     3.8000     3.8000    -0.0000
 35 H      0.8739     1.0000     0.1261     0.9860     0.9860    -0.0000
 36 H      0.8739     1.0000     0.1261     0.9862     0.9862     0.0000
 37 H      0.8756     1.0000     0.1244     0.9846     0.9846    -0.0000
 38 O      8.4319     8.0000    -0.4319     2.0986     2.0986     0.0000
 39 H      0.8540     1.0000     0.1460     0.9876     0.9876    -0.0000
 40 H      0.8991     1.0000     0.1009     0.9869     0.9869    -0.0000

  Mayer bond orders larger than 0.100000
B(  0-C ,  1-C ) :   1.3233 B(  0-C ,  5-C ) :   1.3299 B(  0-C ,  6-O ) :   1.1346 
B(  1-C ,  2-C ) :   1.3585 B(  1-C , 13-H ) :   0.9507 B(  2-C ,  3-C ) :   1.4131 
B(  2-C , 14-H ) :   0.9494 B(  3-C ,  4-C ) :   1.2953 B(  3-C , 15-H ) :   0.9510 
B(  4-C ,  5-C ) :   1.2974 B(  4-C , 11-C ) :   1.0354 B(  5-C , 12-H ) :   0.9391 
B(  6-O ,  7-C ) :   0.8962 B(  7-C ,  8-H ) :   0.9602 B(  7-C ,  9-H ) :   0.9672 
B(  7-C , 10-H ) :   0.9604 B( 11-C , 16-O ) :   1.8570 B( 11-C , 17-C ) :   0.9617 
B( 17-C , 18-C ) :   0.9181 B( 17-C , 39-H ) :   0.9194 B( 17-C , 40-H ) :   0.9066 
B( 18-C , 19-O ) :   1.0772 B( 18-C , 20-C ) :   0.9436 B( 18-C , 21-H ) :   0.9589 
B( 19-O , 23-H ) :   0.9105 B( 20-C , 22-C ) :   1.3224 B( 20-C , 24-C ) :   1.2885 
B( 22-C , 25-C ) :   1.3843 B( 22-C , 29-H ) :   0.9557 B( 24-C , 27-C ) :   1.4060 
B( 24-C , 28-H ) :   0.9575 B( 25-C , 26-C ) :   1.3023 B( 25-C , 30-H ) :   0.9494 
B( 26-C , 27-C ) :   1.2854 B( 26-C , 32-C ) :   1.0313 B( 27-C , 31-H ) :   0.9481 
B( 32-C , 33-O ) :   1.1946 B( 32-C , 38-O ) :   1.8907 B( 33-O , 34-C ) :   0.8517 
B( 34-C , 35-H ) :   0.9631 B( 34-C , 36-H ) :   0.9633 B( 34-C , 37-H ) :   0.9630 


-------
TIMINGS
-------

Total SCF time: 0 days 1 hours 3 min 37 sec 

Total time                  ....    3817.276 sec
Sum of individual times     ....    3791.972 sec  ( 99.3%)

Fock matrix formation       ....    3667.490 sec  ( 96.1%)
  XC integration            ....     523.929 sec  ( 14.3% of F)
    Basis function eval.    ....      37.234 sec  (  7.1% of XC)
    Density eval.           ....     234.091 sec  ( 44.7% of XC)
    XC-Functional eval.     ....       5.413 sec  (  1.0% of XC)
    XC-Potential eval.      ....     218.595 sec  ( 41.7% of XC)
Diagonalization             ....      36.398 sec  (  1.0%)
Density matrix formation    ....       1.807 sec  (  0.0%)
Population analysis         ....       6.007 sec  (  0.2%)
Initial guess               ....      18.042 sec  (  0.5%)
Orbital Transformation      ....       0.000 sec  (  0.0%)
Orbital Orthonormalization  ....       0.000 sec  (  0.0%)
DIIS solution               ....      19.260 sec  (  0.5%)
SOSCF solution              ....      25.874 sec  (  0.7%)
Grid generation             ....      17.093 sec  (  0.4%)

Maximum memory used throughout the entire SCF-calculation: 1274.7 MB


-------------------------------------------------------------------------------
                          DFT DISPERSION CORRECTION                            
                                                                               
                              DFTD3 V3.1  Rev 1                                
                          USING Becke-Johnson damping                          
-------------------------------------------------------------------------------
The PW6B95 functional is recognized
Active option DFTDOPT                   ...         4   

molecular C6(AA) [au] = 18311.437668 


            DFT-D V3
 parameters
 s6 scaling factor         :     1.0000 
 a1 scaling factor         :     0.2076 
 s8 scaling factor         :     0.7257 
 a2 scaling factor         :     6.3750 
 ad hoc parameters k1-k3   :    16.0000     1.3333    -4.0000 

 Edisp/kcal,au: -15.618949098924  -0.024890377083 
 E6   /kcal   : -11.952598210 
 E8   /kcal   :  -3.666350889 
 % E8         :  23.473736076 

-------------------------   ----------------
Dispersion correction           -0.024890377
-------------------------   ----------------


-------------------------   --------------------
FINAL SINGLE POINT ENERGY     -1074.729558461145
-------------------------   --------------------


                            ***************************************
                            *     ORCA property calculations      *
                            ***************************************

                                    ---------------------
                                    Active property flags
                                    ---------------------
   (+) Dipole Moment


------------------------------------------------------------------------------
                       ORCA ELECTRIC PROPERTIES CALCULATION
------------------------------------------------------------------------------

Dipole Moment Calculation                       ... on
Quadrupole Moment Calculation                   ... off
Polarizability Calculation                      ... off
GBWName                                         ... Aldol-OH_sp.gbw
Electron density                                ... Aldol-OH_sp.scfp
The origin for moment calculation is the CENTER OF MASS  = ( 5.316614,  1.726205 -0.189058)

-------------
DIPOLE MOMENT
-------------
                                X             Y             Z
Electronic contribution:      5.52505       3.00533      -1.30357
Nuclear contribution   :     -8.01973      -4.30553       2.01260
                        -----------------------------------------
Total Dipole Moment    :     -2.49468      -1.30020       0.70903
                        -----------------------------------------
Magnitude (a.u.)       :      2.90115
Magnitude (Debye)      :      7.37413



--------------------
Rotational spectrum 
--------------------
 
Rotational constants in cm-1:     0.025376     0.002488     0.002358 
Rotational constants in MHz :   760.745294    74.580450    70.685540 

 Dipole components along the rotational axes: 
x,y,z [a.u.] :    -1.922115    -2.060513    -0.690226 
x,y,z [Debye]:    -4.885629    -5.237408    -1.754414 

 

Timings for individual modules:

Sum of individual times         ...     3834.034 sec (=  63.901 min)
GTO integral calculation        ...       16.070 sec (=   0.268 min)   0.4 %
SCF iterations                  ...     3817.964 sec (=  63.633 min)  99.6 %
                             ****ORCA TERMINATED NORMALLY****
TOTAL RUN TIME: 0 days 1 hours 3 minutes 59 seconds 858 msec
‘Aldol-OH.hess’ -> ‘/home/rothe/Calc/Li_Path/THF/Aldol-OH/Aldol-OH.hess’
‘Aldol-OH.opt’ -> ‘/home/rothe/Calc/Li_Path/THF/Aldol-OH/Aldol-OH.opt’
‘Aldol-OH_sp.cpcm’ -> ‘/home/rothe/Calc/Li_Path/THF/Aldol-OH/Aldol-OH_sp.cpcm’
‘Aldol-OH_sp.densities’ -> ‘/home/rothe/Calc/Li_Path/THF/Aldol-OH/Aldol-OH_sp.densities’
‘Aldol-OH_sp.gbw’ -> ‘/home/rothe/Calc/Li_Path/THF/Aldol-OH/Aldol-OH_sp.gbw’
‘Aldol-OH_sp.job’ -> ‘/home/rothe/Calc/Li_Path/THF/Aldol-OH/Aldol-OH_sp.job’
‘Aldol-OH_sp_property.txt’ -> ‘/home/rothe/Calc/Li_Path/THF/Aldol-OH/Aldol-OH_sp_property.txt’
