38
 energy: -62.946360907683 gnorm: 0.060402580870 xtb: 6.4.1 (afa7bdf)
C        -3.34973903470000    0.02367152550000    0.49900033620000
C        -2.58927596640000   -1.14441044180000    0.39651950710000
C        -1.19927219640000   -1.03596136700000    0.31018615740000
C        -0.58863127790000    0.22739346040000    0.36057785340000
C        -1.34331753440000    1.41007230020000    0.48839869970000
C        -2.73274313300000    1.28270097470000    0.51843674300000
H        -3.38040795450000    2.15171935530000    0.55067728990000
H        -0.57510217080000   -1.91983270820000    0.20442716470000
H         0.49730157920000    0.27147343860000    0.29244650460000
C        -0.61718019940000    2.69798127700000    0.47700855770000
H         0.38030458670000    2.58506899710000    0.04507706260000
C        -0.89822092900000    3.95562741330000    0.87074917680000
H        -4.43543915820000   -0.03111942230000    0.56008487040000
C        -3.30669756710000   -2.44836088370000    0.37928049750000
O        -2.43787841130000   -3.48509441610000    0.27118269560000
C        -3.07250751100000   -4.76602155700000    0.28296354680000
H        -2.31032232240000   -5.52708242380000    0.09481295310000
H        -3.82974386690000   -4.83590389740000   -0.50501312540000
H        -3.51831832510000   -4.95625928050000    1.26451640030000
O        -4.52282247440000   -2.54774914280000    0.46044319600000
C        -2.10501575820000    4.52731901080000    1.54411182220000
H        -0.10844606910000    4.67151687640000    0.67436337770000
C        -2.21384181300000    6.01114641300000    1.73420537840000
O        -3.01250028450000    3.82187278770000    1.96842738750000
C        -1.12540125630000    6.89109889480000    1.71313164620000
C        -1.31705620250000    8.25473791500000    1.96443477820000
C        -2.59099535850000    8.75444411270000    2.24596521200000
C        -3.68538019070000    7.89364188920000    2.26873103410000
C        -3.49062750630000    6.53281914340000    2.00709956270000
H        -4.35395452900000    5.86873407730000    2.03339255460000
H        -2.69346788260000    9.81586856270000    2.44781934680000
H        -0.11010220900000    6.55411045080000    1.53717288420000
H        -0.46521101890000    8.93181331370000    1.95664807740000
O        -4.98008619260000    8.24599091440000    2.53197862760000
C        -5.22047398660000    9.59106708550000    2.92618708330000
H        -4.67271814210000    9.84046368690000    3.84117192940000
H        -6.28906084910000    9.69016494340000    3.14126010070000
H        -4.97796565980000   10.28799755010000    2.11749156030000
38
 energy: -62.951566254291 gnorm: 0.024016118272 xtb: 6.4.1 (afa7bdf)
C        -3.34710842530435    0.04296020346212    0.49401910826051
C        -2.58525740851550   -1.12143825680946    0.39954843319020
C        -1.19783579897358   -1.00881343846372    0.32111057860008
C        -0.59928581269910    0.24154190852339    0.35887583078230
C        -1.35554973850029    1.41966813830835    0.47768179637568
C        -2.74349728662257    1.29189844701631    0.51976005894830
H        -3.37802396707251    2.16211992991153    0.57876955547315
H        -0.58317119724999   -1.89186177071001    0.21878792733750
H         0.48034864971271    0.29189028288786    0.29979807174991
C        -0.63511888905545    2.69814431148011    0.47379509644673
H         0.36460953457669    2.57949850361881    0.05967276137262
C        -0.92226373766365    3.95640736952637    0.86676216250257
H        -4.42475916310976   -0.02818780201782    0.54870003152047
C        -3.29145102030859   -2.42910595227179    0.38343376753941
O        -2.45060167364854   -3.47515842713511    0.27656570456094
C        -3.06803934822936   -4.76193416677608    0.28327533867043
H        -2.28462809660652   -5.49684189853336    0.09355587981734
H        -3.83197642794379   -4.82161532909860   -0.49495564845141
H        -3.52735018275481   -4.94967913708783    1.25628161284242
O        -4.49605749830366   -2.54053138549744    0.45770660116591
C        -2.11648038099988    4.51496435306930    1.54420119876357
H        -0.14249746982010    4.68184198135886    0.67634592777705
C        -2.21034447863023    5.99926400748748    1.73022616037344
O        -3.02020008063818    3.80865601016288    1.97008205676217
C        -1.12560538204316    6.87884895494234    1.71182558257145
C        -1.32005434799046    8.22915750246212    1.96589972068802
C        -2.58239725034648    8.73515860838512    2.24356166187106
C        -3.67534055582743    7.87605239764591    2.26669834383986
C        -3.47761095558238    6.51879884908991    2.00697857086215
H        -4.33416482728503    5.85901788415881    2.03245686703910
H        -2.68834673698464    9.79224329951076    2.44215093508963
H        -0.11729963383857    6.53742345917954    1.53491939974574
H        -0.47512694961623    8.90366135732021    1.95367916477191
O        -4.96316370943006    8.24254314856575    2.53196872125702
C        -5.21193580610640    9.58366611801720    2.91975553117877
H        -4.65881230554499    9.83933706506572    3.82803268275584
H        -6.28176814599848    9.65093947887320    3.12780405745211
H        -4.96415227084468   10.28218482367127    2.11563719919607
38
 energy: -62.952912837710 gnorm: 0.007814102184 xtb: 6.4.1 (afa7bdf)
C        -3.35175374466679    0.06111931512498    0.49127096212799
C        -2.58512894588627   -1.09948758025947    0.40019310320249
C        -1.19723498365371   -0.98501009256586    0.32930710515027
C        -0.60604309523731    0.25906421917981    0.36085207106563
C        -1.36646550967400    1.43299546643251    0.47884335631492
C        -2.75625002776080    1.30487610226552    0.52655311146775
H        -3.37887493425782    2.17938105977009    0.59748543822675
H        -0.59087777669832   -1.87228884008961    0.24235962126779
H         0.47031204505401    0.32138257966647    0.30266795269291
C        -0.64763895023995    2.70071051551012    0.47387968159299
H         0.35128230262015    2.58239446820092    0.06420650478744
C        -0.94536523292709    3.95858549231548    0.86014937156099
H        -4.42602703636921   -0.02718486523449    0.53706344884912
C        -3.28295039948408   -2.40775967633488    0.38380222386894
O        -2.45485389279019   -3.45442092729104    0.28283106387110
C        -3.06025406680000   -4.74604038214897    0.28419662610038
H        -2.25852145778491   -5.45629106559579    0.09446623036115
H        -3.82524619850575   -4.80545885767042   -0.49191361945554
H        -3.52783025819674   -4.93923973325176    1.25154715557892
O        -4.48522840888720   -2.53405583069058    0.45777331705286
C        -2.13201613816921    4.49947862759675    1.54114906138636
H        -0.17673493039047    4.69409673537230    0.67009233590884
C        -2.20939093052897    5.98145834298929    1.73228200011420
O        -3.03121483639089    3.79490340350500    1.97905561226465
C        -1.12161051150377    6.85694726345011    1.71181954951958
C        -1.31621328124264    8.20113959671939    1.96274929464934
C        -2.57284463335403    8.71344426325663    2.24003610172119
C        -3.66787202504363    7.85592878933107    2.26469713284057
C        -3.47099340012083    6.50034157025038    2.00928907114334
H        -4.32429935847921    5.84190521923219    2.03640780755806
H        -2.68179939726559    9.76782659159416    2.43697646116718
H        -0.11853535720899    6.50722953979306    1.53329229771533
H        -0.47232651821064    8.87285037552543    1.95133678140794
O        -4.94931602230562    8.23288053068801    2.53108655309705
C        -5.20135801762532    9.57244624089717    2.91092350465539
H        -4.64660040956382    9.83740224343576    3.81540101830154
H        -6.27056973294336    9.61794103690228    3.11398610316844
H        -4.95367270330707   10.27122909142800    2.10725303839614
38
 energy: -62.953199999063 gnorm: 0.004141103851 xtb: 6.4.1 (afa7bdf)
C        -3.35903253158789    0.07136637291707    0.48882806162899
C        -2.58889429304342   -1.08790831313431    0.40361976897294
C        -1.19988420456103   -0.97563659507026    0.33870145934590
C        -0.61025305590182    0.26872887060334    0.36224776141871
C        -1.37364999245986    1.44141413284596    0.47537257753615
C        -2.76481499459853    1.31467566809306    0.52505377632333
H        -3.38237594077561    2.19223505888183    0.60009540856243
H        -0.59729524539706   -1.86630457032453    0.25934160541304
H         0.46588767558647    0.33862791546306    0.30465877175678
C        -0.65371786636490    2.70420086405947    0.46595655706530
H         0.34622917724135    2.58759713473764    0.05908411915964
C        -0.95685861831341    3.95994843808374    0.85281251639953
H        -4.43321658042524   -0.02431735680684    0.52995688762887
C        -3.28239319750213   -2.39531877613859    0.38893162996597
O        -2.45237430529436   -3.43827801478094    0.29000972575713
C        -3.05119325018746   -4.73284649018039    0.28434943311465
H        -2.24213216086311   -5.43297972915912    0.09521093240386
H        -3.81337705091474   -4.79316948283029   -0.49468115559419
H        -3.52191332268651   -4.93188315798471    1.24916292136070
O        -4.48646809839612   -2.52771332070396    0.45733658375938
C        -2.13530576922557    4.48867832978436    1.55054476045607
H        -0.19668619037338    4.70166828429631    0.65614496084631
C        -2.21016560673772    5.96905928910452    1.73750980228219
O        -3.03397837300684    3.78579614210415    1.99335486496064
C        -1.11856362400694    6.84043938205639    1.71444931369757
C        -1.31070524067783    8.18464724206017    1.96329186422289
C        -2.56701049766690    8.70003843933165    2.23877118078771
C        -3.66466068036970    7.84444471135272    2.26529979263029
C        -3.47070370370241    6.48856579246720    2.01319860885153
H        -4.32367425725657    5.82917053365736    2.04284276344258
H        -2.67645294914840    9.75444709572188    2.43281585102106
H        -0.11703351502478    6.48466483639779    1.53881325320350
H        -0.46500662785992    8.85485209085688    1.95042828228355
O        -4.94370967406792    8.22468396834241    2.53042901828858
C        -5.19615170144519    9.56509922532038    2.90334432065155
H        -4.64105994118174    9.83620669359866    3.80614437859536
H        -6.26450705695578    9.60717382097634    3.10564954719545
H        -4.94921551064700   10.26064630329962    2.09628654530409
38
 energy: -62.953396514356 gnorm: 0.004958761555 xtb: 6.4.1 (afa7bdf)
C        -3.36812155189058    0.08284518113108    0.48660046789190
C        -2.59558424499521   -1.07609936234131    0.40942611976573
C        -1.20546067812910   -0.96850774580915    0.35069514067976
C        -0.61512913261657    0.27599849043394    0.36690694309294
C        -1.38022147743321    1.44843896067139    0.47282382986634
C        -2.77268764487519    1.32571162188012    0.52044619906127
H        -3.38603389928146    2.20662573833002    0.59042910864233
H        -0.60631958022805   -1.86275613490563    0.28146855823273
H         0.46107671499473    0.35202544895813    0.30961563038830
C        -0.65817531426142    2.70748225572121    0.45488720878142
H         0.33681712578081    2.59616243154316    0.03523691424422
C        -0.96826627439296    3.96128200912308    0.84046624022923
H        -4.44269314782175   -0.01709061602328    0.52176185852970
C        -3.28510725616626   -2.38254685101971    0.39261726814722
O        -2.44825064376184   -3.42001573095019    0.29881991822654
C        -3.03833704920409   -4.71839716364840    0.28504151037025
H        -2.22260392977846   -5.41018827191587    0.09767189832581
H        -3.79522712245707   -4.78053469239123   -0.49930830994093
H        -3.51226936033740   -4.92436110398199    1.24697968799808
O        -4.49059134704041   -2.52001161842191    0.45678438339065
C        -2.13955991416898    4.47752539095670    1.55605701677386
H        -0.21960767907049    4.71049443075114    0.63026992305656
C        -2.21133308876529    5.95507290604619    1.74993106522545
O        -3.02903017724772    3.77323101373637    2.01689972536712
C        -1.11542050180420    6.82157590818745    1.72465348055102
C        -1.30406406123195    8.16775667663352    1.96734108106671
C        -2.56082472943269    8.68610997112783    2.23881147073814
C        -3.66150596933438    7.83335192367801    2.26902164994870
C        -3.47132087907043    6.47603885964060    2.02393060468183
H        -4.32459618670302    5.81566751247192    2.05470714807691
H        -2.66956091635283    9.74148389993213    2.42813474823103
H        -0.11508374885721    6.45979386289231    1.55285713812992
H        -0.45571929922923    8.83589191793053    1.95238024131091
O        -4.93908811216579    8.21584985901320    2.53101733441682
C        -5.19163065331999    9.55882358041667    2.89268990733674
H        -4.63623838212181    9.83814677297702    3.79316188119353
H        -6.25934189060106    9.60260798113738    3.09522917864277
H        -4.94520677242742   10.24723551538765    2.07890428002846
38
 energy: -62.953582169086 gnorm: 0.006440287235 xtb: 6.4.1 (afa7bdf)
C        -3.37779401793620    0.09453723304091    0.48193227347803
C        -2.60426942837031   -1.06497612320662    0.41627953142831
C        -1.21329666935034   -0.96249400364676    0.36412011506096
C        -0.62106117503152    0.28151865814769    0.37321866314638
C        -1.38700808878726    1.45460626518662    0.46593980597888
C        -2.78011895723127    1.33691215742648    0.50909940652973
H        -3.39092424884550    2.22065969854650    0.56667341583942
H        -0.61676811062662   -1.85943054714653    0.30570943054088
H         0.45532841041033    0.36070660137358    0.31871280468200
C        -0.66528732118816    2.71297382345350    0.43189689319935
H         0.32402526926902    2.60638877168147   -0.00270531347397
C        -0.97951366670610    3.96357181067814    0.82218891781928
H        -4.45269601259111   -0.00627140458837    0.51204349583114
C        -3.29010664411687   -2.37175256839565    0.39922009286814
O        -2.44434657695634   -3.40306016427478    0.30951118955639
C        -3.02398684527778   -4.70575736328997    0.28669570412090
H        -2.20189301830224   -5.39047208676926    0.10131771348059
H        -3.77474789229401   -4.77036805321020   -0.50350125405812
H        -3.50072758046553   -4.91968443574484    1.24549425334628
O        -4.49607279596523   -2.51367565571049    0.45623715073105
C        -2.13561142421967    4.46526787998088    1.57357582151912
H        -0.24371377483425    4.72053149704063    0.59511749528203
C        -2.21113196228778    5.94114041087600    1.76753357327540
O        -3.01267291326280    3.75611235961842    2.05186589536496
C        -1.11246744362358    6.80399185960660    1.74138819595244
C        -1.29827236477622    8.15252613930224    1.97614480756114
C        -2.55594976223495    8.67304782031619    2.24079408520333
C        -3.65873645022249    7.82278197794857    2.27527627618408
C        -3.47153297388688    6.46354919983431    2.03769578987198
H        -4.32482906269104    5.80225923590915    2.07010878261429
H        -2.66390781210845    9.73025147551736    2.42216452057177
H        -0.11237017452027    6.43715074230695    1.57787618909966
H        -0.44770854349720    8.81856262436616    1.95939916577412
O        -4.93588227351222    8.20731504316816    2.53241503322857
C        -5.18776074752534    9.55446527289259    2.87908019138943
H        -4.63196248987183    9.84383912637476    3.77636833628001
H        -6.25523741026702    9.60343159673203    3.08224288092751
H        -4.94130582209495   10.23256395395766    2.05623712049450
38
 energy: -62.953818867252 gnorm: 0.006951941133 xtb: 6.4.1 (afa7bdf)
C        -3.38659173355369    0.10695502478439    0.47451865271428
C        -2.61394705025839   -1.05401640868580    0.42289741361308
C        -1.22236444860147   -0.95620293618109    0.37837637643302
C        -0.62703841096304    0.28634579342216    0.38071794831182
C        -1.39254791862145    1.46069046952083    0.45567003410937
C        -2.78575489936357    1.34874518759150    0.49140874336476
H        -3.39525367678580    2.23503612745391    0.53112860009559
H        -0.62782518859778   -1.85471303762180    0.32965802262938
H         0.44963490582155    0.36512347202275    0.33220286560569
C        -0.67313848763471    2.72069766509326    0.40263754569513
H         0.30484656176365    2.62077771212516   -0.06005108829525
C        -0.99017367345851    3.96702840363047    0.80190767801715
H        -4.46180828325754    0.00855303876462    0.49972611210416
C        -3.29688676154153   -2.36251627368926    0.40475893627933
O        -2.44187785543833   -3.38801764421414    0.32022547041731
C        -3.00946327670033   -4.69533235789194    0.29119170650565
H        -2.18094552425238   -5.37356516264039    0.10839359522981
H        -3.75463604517491   -4.76469553742283   -0.50380792145552
H        -3.48782007160258   -4.91656638882847    1.24725389282299
O        -4.50205578156510   -2.50887912691853    0.45531479412740
C        -2.12884648470059    4.45173824386972    1.59347925022175
H        -0.27141852658669    4.73412516475338    0.55236778890618
C        -2.21012630616561    5.92626551401007    1.79135622672319
O        -2.98413868963082    3.73195175429123    2.09639569684215
C        -1.10972496936057    6.78633759094460    1.76702250648346
C        -1.29369789403836    8.13752512996126    1.99069294452968
C        -2.55272356429775    8.66035303474136    2.24393580720575
C        -3.65670161040206    7.81216951899918    2.28280767303812
C        -3.47140098469466    6.45037340603391    2.05523153946376
H        -4.32499120782344    5.78924449039139    2.08800946284356
H        -2.65990564552775    9.71991299523052    2.41439467922043
H        -0.10935191750930    6.41498373136943    1.61461387416985
H        -0.44163709870395    8.80158952197851    1.97249039860011
O        -4.93407967365657    8.19969591414485    2.53385886515263
C        -5.18363110943639    9.55224312666081    2.86269135881028
H        -4.62688650801219    9.85251361943996    3.75581358644859
H        -6.25112907335564    9.60867599613158    3.06661989646082
H        -4.93627989211178   10.21757405603348    2.02945751725448
38
 energy: -62.954102574418 gnorm: 0.006899381912 xtb: 6.4.1 (afa7bdf)
C        -3.39432286071152    0.11859851051884    0.46291901628803
C        -2.62349824610005   -1.04393372777831    0.42879079937058
C        -1.23162619565967   -0.94836469948443    0.39351479771086
C        -0.63339801559982    0.29253453322387    0.38801975779649
C        -1.39821353394928    1.46790242967101    0.43962331901754
C        -2.79071088462845    1.35996374464380    0.46693239060464
H        -3.40046213911570    2.24772058035969    0.48232438106683
H        -0.63733034150631   -1.84719556182749    0.35678151544436
H         0.44373608718168    0.36784039994565    0.34951108084729
C        -0.68463235908515    2.73225433604435    0.36260958048193
H         0.27699911224466    2.63914801950933   -0.13718967358548
C        -0.99978969153525    3.97257698806620    0.77923645861207
H        -4.46990296053252    0.02504706473665    0.48273123919293
C        -3.30410726403954   -2.35561205304767    0.41154693629317
O        -2.44131829488552   -3.37641284999767    0.33188192808638
C        -2.99657918137934   -4.68808986451937    0.29927430035823
H        -2.16177346005960   -5.36011768730351    0.11878932429413
H        -3.73745793647624   -4.76390699640533   -0.49887529016110
H        -3.47549820494353   -4.91599730680598    1.25316806813034
O        -4.50752327827851   -2.50653208664577    0.45534109329140
C        -2.11614285621338    4.43804679940835    1.61706758206460
H        -0.29987526184710    4.75005869601254    0.50822492042459
C        -2.20695029119869    5.91175340758238    1.81898471952656
O        -2.94247906280090    3.70294803764791    2.14537108206147
C        -1.10619582254194    6.77055504340792    1.80007834286404
C        -1.29023040432066    8.12370500597441    2.01193045172516
C        -2.55113017510954    8.64823799036380    2.24986440790499
C        -3.65489998105017    7.80083270652766    2.29210720590540
C        -3.46963442387638    6.43651664220433    2.07502115567611
H        -4.32357609340916    5.77636832454567    2.10783615819732
H        -2.65836832553520    9.71011355017150    2.40721495436126
H        -0.10493655794485    6.39524711965627    1.66269430635047
H        -0.43777408828016    8.78646496155593    1.99453698764975
O        -4.93325613660644    8.19234865313971    2.53551751811486
C        -5.17962916924475    9.55113773604810    2.84357062386068
H        -4.62150677475956    9.86378219461372    3.73134656121181
H        -6.24729106470748    9.61545254246380    3.04789352246522
H        -4.93103263729400   10.20172764507223    1.99917692719505
38
 energy: -62.954364051808 gnorm: 0.006229207567 xtb: 6.4.1 (afa7bdf)
C        -3.40019545693054    0.12747482994812    0.44892626656810
C        -2.63033634912363   -1.03555462677843    0.43348267010950
C        -1.23849471450716   -0.93843536893388    0.40872611715871
C        -0.63947606212665    0.30168822848403    0.39312004665097
C        -1.40457839914095    1.47691505208943    0.41835996286878
C        -2.79603638502478    1.36898984009626    0.43848700083653
H        -3.40676242578150    2.25667845004169    0.43294669548207
H        -0.64248500570956   -1.83652636848721    0.38681200388917
H         0.43803380354566    0.37315850264946    0.36605963702965
C        -0.69829092983401    2.74596616020579    0.32033002698972
H         0.24373576970716    2.65903998912622   -0.21835819419533
C        -1.00662421950133    3.97963529744530    0.75932408945636
H        -4.47604855891533    0.03798399819627    0.46286852340442
C        -3.30885391692443   -2.35062706766071    0.41864572672737
O        -2.44221346985969   -3.36901940340806    0.34405104631367
C        -2.98832422621700   -4.68377222040181    0.31011774076424
H        -2.14839523017521   -5.35035661586557    0.13119240640512
H        -3.72682752981995   -4.76549609713258   -0.48941522673940
H        -3.46788932147112   -4.91651759240012    1.26242826443843
O        -4.51057421571091   -2.50592049486246    0.45716099347217
C        -2.10149723999629    4.42613609961647    1.63595362546494
H        -0.32532630364772    4.76727815785596    0.47060036043105
C        -2.20130852221592    5.89908832017717    1.84479988749331
O        -2.89816444742442    3.67507739728423    2.18424032531258
C        -1.10080625565181    6.75787329847381    1.83403895123713
C        -1.28663847658323    8.11156754933096    2.03738524107938
C        -2.54951451246838    8.63706019306869    2.25973217654297
C        -3.65217607615535    7.78899329743339    2.30243363821775
C        -3.46525178950922    6.42304263565136    2.09389225533310
H        -4.31973200644706    5.76446069078796    2.12562147389801
H        -2.65803334545117    9.70025737704376    2.40554810960296
H        -0.09919908199899    6.38028383212785    1.70725859031118
H        -0.43496231025900    8.77444502181622    2.02298262599152
O        -4.93186832881928    8.18469739742502    2.53730187855481
C        -5.17685888821677    9.54895166699104    2.82429097907265
H        -4.61808692070985    9.87509082217089    3.70650210657185
H        -6.24470715457365    9.61749025705584    3.02763057141673
H        -4.92755027215092   10.18562232263767    1.96988985653778
38
 energy: -62.954567588342 gnorm: 0.005121537020 xtb: 6.4.1 (afa7bdf)
C        -3.40551796806906    0.13456715875947    0.43251316338627
C        -2.63426015428950   -1.02718276502832    0.43652398907086
C        -1.24261420483918   -0.92522177249711    0.42414558251694
C        -0.64560882750712    0.31551096837148    0.39584995202168
C        -1.41274272711382    1.48836760072661    0.39724058773170
C        -2.80342050251180    1.37671197009448    0.41051532214415
H        -3.41514611811157    2.26334581140580    0.38663897703218
H        -0.64354322960148   -1.82188698296471    0.42111917693503
H         0.43194856919798    0.38591471064464    0.37901554082912
C        -0.71514991763007    2.76176283034017    0.27594394638213
H         0.20676609242057    2.67975249847811   -0.29535334358479
C        -1.01399269555377    3.98912877631771    0.73668486111567
H        -4.48144456779109    0.04576033462485    0.43934200498500
C        -3.31004335846895   -2.34491746676491    0.42613568668314
O        -2.44275303589969   -3.36260725087063    0.35795884228387
C        -2.98368404492191   -4.67910962360131    0.32366941264361
H        -2.14006123768083   -5.34110817723051    0.14609646548326
H        -3.72104168513357   -4.76483995045720   -0.47646143676147
H        -3.46473301151322   -4.91447031883616    1.27470243181870
O        -4.51096907888344   -2.50432428547701    0.46007133248925
C        -2.08686631924430    4.41457886792883    1.65041524446907
H        -0.35248341758712    4.78792606317724    0.43139384500176
C        -2.19343013947917    5.88627910679553    1.86893864966557
O        -2.85438974841581    3.64851776193366    2.21674221607533
C        -1.09287279804280    6.74517006880812    1.86640947004623
C        -1.28096486159405    8.09837618922258    2.06571565050351
C        -2.54572761489549    8.62467993043209    2.27373529451244
C        -3.64756360018897    7.77554953166402    2.31293290859718
C        -3.45835071769182    6.40869149925374    2.11150675939997
H        -4.31371419826598    5.75182136250237    2.14001855995721
H        -2.65629107783361    9.68814550851157    2.41128448416777
H        -0.09134563049195    6.36503184120559    1.74794266110960
H        -0.43019367170525    8.76207569961544    2.05780624563837
O        -4.92863418382539    8.17491964321765    2.53789555625739
C        -5.17521580863393    9.54316965444621    2.80399724436332
H        -4.61789141817055    9.88366151823272    3.68144733690081
H        -6.24339710066656    9.61185690165974    3.00393550319510
H        -4.92497476516567   10.16711561465752    1.94089832563302
38
 energy: -62.954710619572 gnorm: 0.003442394240 xtb: 6.4.1 (afa7bdf)
C        -3.40970654199840    0.13882872168597    0.41787142024579
C        -2.63474823179086   -1.02032575918285    0.43891577378008
C        -1.24360178665938   -0.91216728378794    0.43747145212993
C        -0.65059441655986    0.33046184577505    0.39693299175734
C        -1.42143642282268    1.49978859753334    0.37867773621518
C        -2.81184352108444    1.38247059006348    0.38735200789774
H        -3.42490181883654    2.26746471024309    0.35185778803321
H        -0.64101950901156   -1.80649997390863    0.45116292750108
H         0.42680826202091    0.40319669834845    0.38680747747017
C        -0.73032975159069    2.77510219660856    0.24076264608599
H         0.17260553820547    2.69734449795418   -0.35913207821578
C        -1.01921199906650    3.99800287335074    0.71675599402546
H        -4.48550796332802    0.04689886263920    0.41692690349266
C        -3.30777711308506   -2.33918158856171    0.43324695836368
O        -2.44179900540227   -3.35756435429902    0.37184846968123
C        -2.98336050298405   -4.67398988700190    0.33768204486108
H        -2.13929941290338   -5.33492096054824    0.16123491604742
H        -3.72038512379445   -4.76001895078907   -0.46286786933632
H        -3.46645193071572   -4.90888858279815    1.28799967045511
O        -4.50905553478643   -2.50053905575239    0.46385539968348
C        -2.07344744142839    4.40601880749597    1.65799000417493
H        -0.37270230338413    4.80435924729754    0.40268227681370
C        -2.18505299635586    5.87642057748809    1.88458944154693
O        -2.81930912864074    3.62903602734287    2.23445742705787
C        -1.08433760181025    6.73560718943727    1.88944353765294
C        -1.27427956751023    8.08764605165209    2.09132262909133
C        -2.54070582857035    8.61384574154163    2.28962328868038
C        -3.64231652793720    7.76373300810110    2.32059230590916
C        -3.45092895258053    6.39686208116693    2.12206192163154
H        -4.30686771458901    5.74062623371706    2.14695757980919
H        -2.65329187075646    9.67670045858601    2.42534318397687
H        -0.08300820460716    6.35362539861258    1.77531024614642
H        -0.42407577387933    8.75247161388790    2.09225693067842
O        -4.92483716777687    8.16379923089103    2.53626767604117
C        -5.17552134455777    9.53340986304090    2.78737632518074
H        -4.62265676967502    9.88423788276778    3.66323504044034
H        -6.24452128060860    9.59997546559709    2.98124153265624
H        -4.92284151493808   10.14888275310403    1.91925447303722
38
 energy: -62.954813974779 gnorm: 0.003244284401 xtb: 6.4.1 (afa7bdf)
C        -3.41431829322168    0.14405831256138    0.40360896396432
C        -2.63449074517153   -1.01182005820328    0.44108742392621
C        -1.24398328450050   -0.89808182382231    0.44982346709320
C        -0.65562402254114    0.34676027249691    0.39752142332907
C        -1.43109240939305    1.51201220619910    0.36083240636626
C        -2.82148646650248    1.38953716741552    0.36590462728460
H        -3.43606144932004    2.27322732220036    0.31875370491090
H        -0.63814064182448   -1.78995633599985    0.48055753680384
H         0.42154445080223    0.42469137269322    0.39278480336678
C        -0.74503860943648    2.78805909266643    0.20501265545243
H         0.13983217932231    2.71376016864241   -0.42013634188520
C        -1.02402368820448    4.00704215299576    0.69443420909094
H        -4.48968232211591    0.04627205200867    0.39461706426546
C        -3.30458677424692   -2.33087822130519    0.44057697929592
O        -2.43955571512384   -3.34992151056906    0.38683992001657
C        -2.98419369642578   -4.66566528642339    0.35307224264376