59
 energy: -95.277838164948 gnorm: 0.125503487117 xtb: 6.4.1 (afa7bdf)
C        -3.23148351450000    2.32263971860000   -0.19590967730000
C        -3.22256261310000    1.04695065650000    0.40019600650000
C        -2.01376460100000    0.41247974050000    0.68067715670000
C        -0.80407702880000    1.03794679030000    0.37859182300000
C        -0.78390898110000    2.31028027100000   -0.22914625140000
C        -2.01226945500000    2.93810199920000   -0.51444287340000
H        -2.02950372120000    3.92029726170000   -0.97087210000000
H        -4.14249122080000    0.53805082300000    0.65449432330000
H        -2.01332628060000   -0.56844337930000    1.13904217880000
H         0.10796570080000    0.51011100990000    0.61872441580000
C         0.50491701950000    2.99160284770000   -0.55722330430000
C         1.81704708270000    2.43211290240000   -0.04895965210000
O         0.49457054570000    4.02290253080000   -1.21447300190000
C         3.10391820150000    3.20133513900000   -0.44026892620000
H         1.91668010790000    1.39946511540000   -0.44971608110000
H         1.75343250140000    2.37658919400000    1.06085381910000
C         4.26657721590000    2.41714551800000    0.13587393240000
C         3.20807028380000    4.66637289450000   -0.00869781190000
H         3.15245639970000    3.20280425450000   -1.55198613530000
C         2.27243938110000    5.31975333920000    0.82074551590000
C         2.41633125190000    6.68208573310000    1.12460505610000
O        -4.38192332280000    2.99131883380000   -0.46857423220000
C        -5.65650043320000    2.55093771180000   -0.17615130060000
H        -5.87107693540000    1.60592347150000   -0.71865228570000
H        -6.38876989260000    3.31965693820000   -0.49657850200000
H        -5.76646206700000    2.39484894910000    0.91889758450000
C         3.49694670000000    7.42223318020000    0.60929558130000
C         4.43469572370000    6.77010089050000   -0.20004114820000
C         4.29235941640000    5.41749881140000   -0.50170726300000
H         5.03111585230000    4.96405526360000   -1.14490613510000
H         5.27933850420000    7.30633511920000   -0.61529797750000
H         1.42324269840000    4.79454838300000    1.23311285260000
H         1.67570654620000    7.15872614210000    1.75431542490000
C         3.65045063050000    8.87188356990000    0.89523901920000
O         4.69745971160000    9.55215289660000    0.35417976270000
O         2.83241666180000    9.45156799280000    1.59437416080000
C         4.91564934150000   10.90369318790000    0.51505507970000
H         4.06320019980000   11.48173328890000    0.09866335760000
H         5.83841975330000   11.18918840550000   -0.03191647860000
H         5.04820863250000   11.14645401570000    1.59051771880000
C         5.41408641750000    2.15169651300000   -0.51823748450000
C         6.49059000580000    1.37291541350000    0.14252868430000
O         5.61541644130000    2.62913794220000   -1.76399905880000
H         4.16903253060000    2.09044055850000    1.16893413230000
C         6.18781531250000    0.26811361450000    0.95960051280000
C         7.83267641630000    1.74648196280000   -0.03181773540000
C         8.86086615560000    1.05467224690000    0.62292970530000
H         8.08030543610000    2.60925839720000   -0.63849057950000
C         7.20940501580000   -0.45515842800000    1.57573853840000
C         8.53947340890000   -0.06300181990000    1.41920198630000
H         9.30740597650000   -0.63025847480000    1.92728387510000
H         5.16328982370000   -0.05379005270000    1.09979962970000
H         6.96815325420000   -1.31704880850000    2.18473187670000
O        10.13278632650000    1.50912393120000    0.48176638990000
C        11.24119591250000    1.00799121790000    1.13265610530000
H        11.09794678430000    1.06479495880000    2.23418921690000
H        12.12643299040000    1.62048578940000    0.86588814450000
H        11.42399926910000   -0.04282950230000    0.82611539830000
Li        7.15486409060000    2.23119389070000   -2.68473222630000
59
 energy: -95.296475633905 gnorm: 0.060510231796 xtb: 6.4.1 (afa7bdf)
C        -3.21940892567555    2.32225340029705   -0.19248534229088
C        -3.21493047196123    1.05504204534695    0.39984015284144
C        -2.00933916913434    0.42676092640932    0.67637460855242
C        -0.80254364144425    1.04177237580905    0.38016820121033
C        -0.78009013910179    2.30649340002817   -0.22098368800991
C        -2.00058027421205    2.92924086313996   -0.50715768571582
H        -2.01248880850497    3.90754980143848   -0.96656716994641
H        -4.13797343458607    0.55244610660153    0.64879045043162
H        -2.01252143674010   -0.55279620754583    1.13236403985418
H         0.11079677589184    0.51947619688956    0.61533307146999
C         0.49548371082739    3.01281720857938   -0.56012185357800
C         1.80358236035215    2.44955034068201   -0.03840005707851
O         0.47433746165426    4.02791656895146   -1.23720402671114
C         3.09396790273674    3.20744692211495   -0.43080252235555
H         1.91146752455991    1.42646843993755   -0.42583474384175
H         1.74170088500656    2.37731840460148    1.05586452591779
C         4.26681059773614    2.43063778234747    0.13248676982867
C         3.19850854793651    4.67061204915614   -0.01262339486799
H         3.17281423436426    3.20077462070885   -1.53037610262076
C         2.29130146691259    5.32943238131775    0.82078895411276
C         2.43546120490156    6.68067395540399    1.11800321440942
O        -4.35308806839098    3.01669390236753   -0.48245419160586
C        -5.63020253896515    2.53938566329760   -0.17290433049813
H        -5.86422555406544    1.60507013317721   -0.70617889497494
H        -6.34343556275552    3.30637082373528   -0.49501965660002
H        -5.76081025192840    2.38203821020669    0.90951689636318
C         3.50654376404202    7.41901191797442    0.60377763607307
C         4.43412096189538    6.75688033292740   -0.20297891573534
C         4.27844241177688    5.41301874324143   -0.50286878792523
H         5.01026009449255    4.93880946891925   -1.13981895547499
H         5.27404168641318    7.29812634836181   -0.61303132891200
H         1.44067818401882    4.80625261484707    1.23021751007181
H         1.69870295615991    7.16558830600579    1.74353468061014
C         3.63271136217374    8.86677600787152    0.89731676581075
O         4.69273948773116    9.49692206903064    0.33954629836925
O         2.83478203857904    9.46806453326217    1.59897964345802
C         4.89732504354154   10.87279670812177    0.52056567481697
H         4.06059738091736   11.46380527054236    0.11944562981161
H         5.81081985740024   11.14304579148667   -0.02238460961543
H         5.02580815996839   11.13209137999784    1.58164468121256
C         5.41918596029337    2.16358506936734   -0.51926218771760
C         6.49108594943816    1.37528438409359    0.14469087890939
O         5.64462543944270    2.60172574389992   -1.75950094243022
H         4.16239099651511    2.10255990046229    1.15862104192640
C         6.19374309446998    0.27431450741166    0.95378119807774
C         7.82838185305908    1.73507058121459   -0.02906423100307
C         8.85484880647608    1.05321251320774    0.62665891699896
H         8.07751914165943    2.61416894162473   -0.61869690400165
C         7.21211569731542   -0.43777355905692    1.56898367532185
C         8.53752353854810   -0.05327134702442    1.42071095803323
H         9.30855525490099   -0.61826567556540    1.92256659919127
H         5.17005035888452   -0.04027793370160    1.09186706331236
H         6.97289221326682   -1.30038137546593    2.17487744285037
O        10.11927842648613    1.52977479232079    0.45513986183601
C        11.21975490785960    0.99886712545751    1.13296728880701
H        11.09459994063337    1.05060804014509    2.22620920876838
H        12.08683848038174    1.60993429120225    0.85892348795149
H        11.42000703563277   -0.04266542366716    0.83944580441905
Li        7.12567268541236    2.23855437858422   -2.66726156491831
59
 energy: -95.303923283217 gnorm: 0.017833755304 xtb: 6.4.1 (afa7bdf)
C        -3.20526910214160    2.32540963729911   -0.18888840723823
C        -3.20524641267382    1.06524099214564    0.40079771267382
C        -1.99979393402631    0.44169567751431    0.67542087438599
C        -0.79266172974877    1.04723310629539    0.38530062286574
C        -0.76933512217953    2.30831294939886   -0.21135406744229
C        -1.98461799519274    2.92749587163072   -0.49805676810997
H        -1.99101522157312    3.90195216533911   -0.96231951778249
H        -4.13098689155628    0.56784520730626    0.64493254047896
H        -2.00821252396168   -0.53843171421093    1.12775462183742
H         0.12218952966591    0.52773794587014    0.61428092458224
C         0.49434267378536    3.03131926463302   -0.57141032560142
C         1.79633679522981    2.47030249983734   -0.02992572350755
O         0.46053005591668    4.02798238972772   -1.26857592297500
C         3.08834741581979    3.21562186027388   -0.42734365158088
H         1.89972127684082    1.45254053235379   -0.40985064464724
H         1.72732673814604    2.39806454025097    1.05507096150249
C         4.26610863349846    2.44180142015543    0.13152500732963
C         3.19164872556979    4.67216886900104   -0.01227584576685
H         3.18238035230029    3.20090031852483   -1.51866106473850
C         2.29938874461120    5.33376213828045    0.82194907613435
C         2.44645852819500    6.67803406181245    1.11165077670056
O        -4.32398410160995    3.04252124295636   -0.49633444240700
C        -5.60193195286762    2.53113622442504   -0.17201241430339
H        -5.82694139005193    1.60184522724637   -0.70227107461136
H        -6.30241129475254    3.29840686097135   -0.49598724812994
H        -5.72480378377305    2.37223368081256    0.90284638223415
C         3.51366218473022    7.41361152587243    0.59610033991025
C         4.43511921606399    6.74593630093252   -0.21213100042118
C         4.26894656368813    5.40880503830489   -0.50617782343937
H         4.98866510403256    4.91351746006843   -1.14264994070454
H         5.27370779085703    7.29174387123322   -0.61463406168133
H         1.45177651239225    4.80930483692352    1.23628149287019
H         1.72116032077938    7.17417487746016    1.74068378772735
C         3.62444623064328    8.85595031896351    0.90504291907772
O         4.68915257852396    9.44277216029599    0.32590102273664
O         2.83970829249795    9.47578158874103    1.59717349521810
C         4.87808442034591   10.83978203780589    0.52503957793239
H         4.03805087641220   11.41718389830913    0.13408848499030
H         5.78555166247171   11.09425794778398   -0.01740823791048
H         4.99663132823389   11.08479744200132    1.58224824973194
C         5.41645341201173    2.17085518224690   -0.52300730209016
C         6.48595242071710    1.38536756958060    0.15630288481967
O         5.67625141535050    2.57676074374467   -1.75427926408246
H         4.16455257199166    2.12012500727899    1.15663745655524
C         6.19445872338177    0.28165013890955    0.95572016819384
C         7.81987939925138    1.73670441925929   -0.01600356220226
C         8.84900133301877    1.05348289906231    0.62945045318750
H         8.07343624717744    2.62465941265589   -0.59508375716772
C         7.21341290036919   -0.42374298079967    1.56503515413619
C         8.53786448197240   -0.04605621837494    1.42079133403397
H         9.31161000706354   -0.60595247500910    1.92139931177915
H         5.17069568933910   -0.02867465219852    1.08809434141904
H         6.97738610203095   -1.28619495676694    2.17088053579914
O        10.10738174789893    1.54869827282806    0.42692453827547
C        11.19948628370931    0.99077919050326    1.12929580488384
H        11.06495522914939    1.04308782516938    2.21275966813961
H        12.05553422095105    1.60124240214501    0.85011822552302
H        11.39223638386381   -0.04581762749829    0.83977505385576
Li        7.06845790080952    2.25993433481625   -2.64461098978002
59
 energy: -95.305834226877 gnorm: 0.013084058711 xtb: 6.4.1 (afa7bdf)
C        -3.18789805670951    2.33529190820300   -0.18858361537028
C        -3.19093962527887    1.07681947629295    0.40231437998600
C        -1.98520661266447    0.45307844691396    0.67873942930252
C        -0.77701724744734    1.05551757047659    0.38933547244098
C        -0.75530071717511    2.31591107796300   -0.21095304665534
C        -1.96741061971996    2.93599594106906   -0.49800781442938
H        -1.97063316907852    3.90944350581680   -0.96362869126698
H        -4.11715297498939    0.57998380288875    0.64425931557312
H        -1.99709795889789   -0.52757939389651    1.13008465311030
H         0.13813653922973    0.53618327537487    0.61766677413253
C         0.50153964153132    3.04190041761825   -0.58136579738086
C         1.79508833335012    2.48137754181349   -0.02559504775024
O         0.46494592506472    4.02135844982113   -1.30174735358020
C         3.08583943153255    3.21717391767149   -0.42824760936173
H         1.89077834680301    1.45879474999384   -0.39505752869871
H         1.71703594460979    2.42621181522434    1.06021795546852
C         4.26386183845160    2.45096182279635    0.13860300858877
C         3.18498637006371    4.66924845525354   -0.01561897103008
H         3.18128591207807    3.19706777699782   -1.51892668279391
C         2.29636041161956    5.32529829176479    0.82727518857255
C         2.44929328758663    6.66730996776756    1.11846933424346
O        -4.30120380404450    3.05609896888534   -0.50327039693274
C        -5.57735004555100    2.53095481167890   -0.17564441233923
H        -5.78504635911267    1.60008393506114   -0.70866799073306
H        -6.28122436149949    3.29469413337305   -0.49852567968289
H        -5.68602509996223    2.36996954548793    0.89955764501033
C         3.51412849483035    7.39908456599201    0.59470747432293
C         4.43475432488725    6.73593508872770   -0.21937403193344
C         4.26284266106784    5.40223197548755   -0.51550290164040
H         4.97460743398890    4.89822814819591   -1.15454688845137
H         5.27131941433173    7.28463385838128   -0.62245239682223
H         1.45212608388803    4.79970123368710    1.24685666509646
H         1.73170115668551    7.17276074308418    1.74881627038550
C         3.61787263317081    8.83988047213040    0.89892859249132
O         4.68377066467828    9.41274553624080    0.31640957993151
O         2.84432715132219    9.46319928711096    1.59725515574995
C         4.86759845441866   10.81419777911167    0.52782580053940
H         4.01746476852588   11.37749171767279    0.14069981772839
H         5.77422619308366   11.06867832715987   -0.01322167136225
H         4.97718572448706   11.03708334294920    1.59010624885937
C         5.41048306518585    2.17962848656737   -0.51715449087879
C         6.47769207874709    1.39719489635869    0.16969356394565
O         5.67641114801717    2.55907855048281   -1.75351054249924
H         4.16797442694952    2.13917505838782    1.16684278047690
C         6.18863207822228    0.28953280893560    0.96579442356997
C         7.80884066939189    1.75063807262262   -0.00382167754237
C         8.84053612323686    1.06167150006680    0.63115285827560
H         8.06429904418819    2.63912540382999   -0.57970821188089
C         7.20987090751259   -0.41467374308287    1.57108374761505
C         8.53509320546568   -0.03815627161408    1.42261826573270
H         9.31055521274574   -0.59919534304781    1.91893693350530
H         5.16462994135350   -0.02117558208259    1.09485152643907
H         6.97754636482509   -1.27948608041092    2.17487073424424
O        10.09690347959446    1.55637618194348    0.41266307361642
C        11.18545949937720    0.98748200067843    1.12025834320684
H        11.03753212226835    1.04309389195366    2.20102949485057
H        12.04475146876917    1.59284249713112    0.84162769348046
H        11.36216587914639   -0.05061598708620    0.82842537919567
Li        7.01829036104728    2.29012213222310   -2.64882338547168
59
 energy: -95.307017787469 gnorm: 0.009378037172 xtb: 6.4.1 (afa7bdf)
C        -3.16799230319332    2.35013791288706   -0.18996163841730
C        -3.17271078938987    1.09237676561008    0.40418390339712
C        -1.96716583545403    0.46712313393902    0.68399311995956
C        -0.75857542977244    1.06712738449663    0.39163776664905
C        -0.73904252132393    2.32626312254699   -0.21527976503732
C        -1.94813826161499    2.95013813425069   -0.50083215760180
H        -1.94803104407640    3.92212346107756   -0.96947963737525
H        -4.09792695578803    0.59474860675328    0.64667561083787
H        -1.98145635508653   -0.51242896082575    1.13813980157685
H         0.15621512517504    0.54734053422902    0.62129084968451
C         0.51430325914920    3.04225023668296   -0.60073472856926
C         1.79616546805040    2.48695994603288   -0.02227590045971
O         0.48116894964606    4.00694316115660   -1.34023781542551
C         3.08409568800003    3.21436822632007   -0.42820023967230
H         1.88667254025019    1.45615911476859   -0.37418883725839
H         1.70603449310713    2.45557896446169    1.06604312162231
C         4.25942932830705    2.45771482420956    0.15114777396383
C         3.17900303050444    4.66339388486899   -0.01920129763493
H         3.17977858318542    3.18551724372180   -1.51997874501761
C         2.29063855722442    5.31055747964206    0.83277382571318
C         2.44595070788127    6.65258208341341    1.12420033922585
O        -4.27890822620804    3.06851080376140   -0.50840103724010
C        -5.55161438266088    2.53437986790944   -0.18194288418802
H        -5.74082601997229    1.60083242178192   -0.71909249129280
H        -6.26495945304244    3.29122841201283   -0.50188925410100
H        -5.64751332973203    2.37002584891076    0.89478758193011
C         3.50967763825685    7.38023442982844    0.59345897821504
C         4.42956970145732    6.72594269630529   -0.22956035602772
C         4.25527285003763    5.39417501957976   -0.52814305884711
H         4.95845212465548    4.88582767758527   -1.17280702455722
H         5.26435771806539    7.27685155619336   -0.63379849019071
H         1.45152422087720    4.78241333779522    1.25851871416167
H         1.74015232326212    7.16352369445178    1.76332262709146
C         3.62071310223707    8.81647277413309    0.90292094428676
O         4.68013002965878    9.38772067933089    0.31255840808481
O         2.84773254746225    9.44271136343665    1.59866458239780
C         4.85763045915709   10.78946872365001    0.53003487725786
H         3.99641285999580   11.33953774720677    0.14660512362665
H         5.76263224036227   11.05244018306412   -0.00950180007462
H         4.96135426452095   10.99340034686151    1.59739160934232
C         5.39969347865242    2.18060192017615   -0.50688127387188
C         6.46771701354772    1.40803577707090    0.18631961290330
O         5.66385420050148    2.54077000082123   -1.75006328299326
H         4.17091387371181    2.16442153898026    1.18573787325901
C         6.18067562193883    0.29808871506971    0.98180046313048
C         7.79529222233109    1.76907021580765    0.01042499262420
C         8.83013137038047    1.07408922893512    0.63422871447903
H         8.05006227567494    2.65483838823567   -0.56643886116903
C         7.20481061758719   -0.40593393956730    1.58249042995178
C         8.53033210255675   -0.02837238928405    1.42574741586156
H         9.30705793352644   -0.59287145058165    1.91590512971683
H         5.15650038021312   -0.01335308110742    1.11027859633554
H         6.97678828385899   -1.27206135569591    2.18612844094998
O        10.08568551517575    1.56145299429651    0.40308556008496
C        11.17222436294046    0.98522925078717    1.10805329230133
H        11.01511408666988    1.04348714568227    2.18828432905684
H        12.03926674107885    1.58170759289176    0.83128168916736
H        11.33130530851854   -0.05555458387262    0.81240327033995
Li        6.96360527316423    2.34134194941256   -2.68560804896380
59
 energy: -95.307865020835 gnorm: 0.008124855027 xtb: 6.4.1 (afa7bdf)
C        -3.15057256592541    2.36604180361247   -0.19330478008485
C        -3.15570956558881    1.11021971568498    0.40718599133679
C        -1.95119682150151    0.48317691862792    0.69097920152894
C        -0.74281631026000    1.07925398282194    0.39140552276313
C        -0.72477705144019    2.33472941263134   -0.22511608162294
C        -1.93105531005816    2.96287329447368   -0.50997875625342
H        -1.92706177247487    3.93354523354975   -0.98156838126742
H        -4.07934343674909    0.61196785840644    0.65269816602270
H        -1.96685417216921   -0.49333202238431    1.15174893443717
H         0.17126592714142    0.55931332833874    0.62362809187088
C         0.52853283127880    3.03797511844013   -0.61760774719336
C         1.79873965367063    2.48649489111501   -0.01851107789742
O         0.50579425507244    3.98437308542767   -1.38201469291639
C         3.08387801617310    3.20710582795585   -0.42661784070181
H         1.88797161174301    1.44743071327553   -0.34880887535968
H         1.69746289147705    2.47886725447113    1.07081438224834
C         4.25637541660380    2.46240733150483    0.16711578333526
C         3.17323118868421    4.65605667783019   -0.02471312695053
H         3.18177800638318    3.16792482989065   -1.51902794165538
C         2.28702840265604    5.29372760789429    0.83775863041143
C         2.44579968253716    6.63440145879504    1.13565867176132
O        -4.26073219295531    3.08066549093940   -0.51340835028634
C        -5.52917138579473    2.53986710034832   -0.18974222817197
H        -5.70471869689643    1.60461840167694   -0.73013157731219
H        -6.25223781253672    3.28912847231286   -0.50678346476701
H        -5.61837911344672    2.37210220407383    0.88770016171460
C         3.50458039198447    7.36141333221755    0.59494738186211
C         4.42076491947609    6.71709314229795   -0.24047198574099
C         4.24512241982613    5.38687651617749   -0.54342511001760
H         4.93996597272520    4.87776759477969   -1.19592877564385
H         5.25069593423000    7.27137844169454   -0.64980722912937
H         1.45276430860930    4.76232013697645    1.26784603855976
H         1.74808013023835    7.14791279464564    1.78112347670066
C         3.61723978892725    8.79677530234630    0.89936895966775
O         4.67341267107901    9.37040799603942    0.30789191087517
O         2.85170690473679    9.42030246094972    1.60745139068806
C         4.84868447631677   10.76898765761850    0.53532182643579
H         3.98224489881525   11.31409339158544    0.15571309820360
H         5.75242216056462   11.04275659761077   -0.00135424395197
H         4.94921160294822   10.95869940096710    1.60600761104703
C         5.39019542131105    2.17588519947829   -0.49360274359859
C         6.46039078770431    1.41420593625859    0.20293859588535
O         5.64477759103703    2.51805425656850   -1.74529452472124
H         4.17342105496048    2.19052903413748    1.20836302040193
C         6.17428555654854    0.30602864680489    1.00163168614354
C         7.78429434513632    1.78321144695830    0.02378636446666
C         8.82176492888286    1.08516796237983    0.63947397995829
H         8.03563556454947    2.66474122772828   -0.55816598575810
C         7.20081547042538   -0.39704612950853    1.59927537817513
C         8.52587678346567   -0.01869452304155    1.43213398235522
H         9.30346073811478   -0.58726106168575    1.91574159778329
H         5.14984729895253   -0.00462856315314    1.13233186426693
H         6.97677085453312   -1.26287830711977    2.20488396687843
O        10.07707775229358    1.56406174523343    0.39789962763990
C        11.16256061140651    0.98221328497958    1.09602664863647
H        11.00485961571084    1.04130866580335    2.17677783629877
H        12.03647545781496    1.56953988593076    0.81923560765722
H        11.30785232723044   -0.06037482452568    0.79684744345749
Li        6.90074714902206    2.41587612125149   -2.75830656727254
59
 energy: -95.308644693158 gnorm: 0.010738534250 xtb: 6.4.1 (afa7bdf)
C        -3.13456870909821    2.38385890889423   -0.19757774748331
C        -3.14052823832364    1.13198617671247    0.41242472742220
C        -1.93832156675568    0.50230084993761    0.70036650273412
C        -0.72997395943670    1.09132204858393    0.39023163975530
C        -0.71152141041407    2.34085057608253   -0.23811500848740
C        -1.91439556739518    2.97463857469213   -0.52238258423246
H        -1.90508052411127    3.94204182245491   -1.00101843741467
H        -4.06289997613486    0.63543020069932    0.66452109754857
H        -1.95558909672138   -0.46896971721315    1.17189191289263
H         0.18288410120541    0.57023128668772    0.62362473878141
C         0.54515406717695    3.02353880319799   -0.64277072635487
C         1.80290431803835    2.48098779145525   -0.01524105645060
O         0.53759438571068    3.95043222342890   -1.43102797871414
C         3.08563534297755    3.19665588732742   -0.42404008425130
H         1.89687712112485    1.43546437293259   -0.32164116275049
H         1.68881761677195    2.49509901046912    1.07292579804836
C         4.25643171612781    2.46705130630932    0.18494138670522
C         3.16775826630113    4.64728427334755   -0.03173815485877
H         3.18963810482849    3.14472736262286   -1.51567382241664
C         2.28624264776973    5.27587574079881    0.84171626485980
C         2.44469134213899    6.61550446923680    1.14396352446368
O        -4.24414177149437    3.09611812557794   -0.51905011566676
C        -5.50807388483924    2.54788020171450   -0.19931593904427
H        -5.67386755036472    1.61204305500974   -0.74190089823281
H        -6.23915802362216    3.28968008499563   -0.51468904353083
H        -5.59673309487255    2.37693169270804    0.87769022177297
C         3.49749243220381    7.34409979899109    0.59503879910090
C         4.40639589597247    6.70995425289324   -0.25617793412480
C         4.23105842342517    5.38092750037466   -0.56287427460326
H         4.91749392808948    4.87292446810517   -1.22492003031896
H         5.22986958530262    7.26874694159223   -0.67143408839077
H         1.45847685180869    4.73956709494943    1.27748553169259
H         1.75797942561087    7.12653693769431    1.80288099023362
C         3.61837720192307    8.77571117920353    0.90846222410299
O         4.66590301353398    9.35549335152563    0.30791352147273
O         2.85496869141440    9.39662781091238    1.62261157897477
C         4.83672598064339   10.75108763525428    0.54360504602877
H         3.96733010563825   11.29519068404771    0.16976045264218
H         5.73801359042217   11.03576867916490    0.00837287987347
H         4.93842129440539   10.93246296643805    1.61509301443698
C         5.38356628721087    2.16599040005428   -0.47898403390236
C         6.45604427780694    1.41644013282568    0.22175504222647
O         5.62776871450930    2.48952003820941   -1.73898759004942
H         4.17720081085103    2.21958841665880    1.23255191480319
C         6.17027746020769    0.31381943616136    1.02733116246341
C         7.77612589967852    1.79237161575710    0.03918624551534
C         8.81587075324402    1.09404627097150    0.64896521863974
H         8.02171354203940    2.66686815602070   -0.55405745162349
C         7.19890443372085   -0.38661219791391    1.62379129649969
C         8.52285027522579   -0.00867526605945    1.44470802184643
H         9.30137603404066   -0.58081955933528    1.92192280807671
H         5.14550728813144    0.00570717448881    1.16230959275661
H         6.97877757580569   -1.24990917554776    2.23437839187862
O        10.07081724614198    1.56555386787882    0.39569342744198
C        11.15637935857156    0.97680662730688    1.08351154309827
H        11.00663807436711    1.03481337109777    2.16552036300915
H        12.03471828696173    1.55560502516308    0.80308313107986
H        11.29071092257665   -0.06646655363544    0.78096472505333
Li        6.80770824712876    2.51894855218621   -2.87155583182944
59
 energy: -95.309244167582 gnorm: 0.011266449108 xtb: 6.4.1 (afa7bdf)
C        -3.12819476588449    2.39434480680682   -0.20063842282634
C        -3.13588381391836    1.14713731840972    0.41869882265674
C        -1.93633096196113    0.51454117944953    0.70853136818293
C        -0.72733333182151    1.09576852851224    0.38860325049500
C        -0.70612296967264    2.33954566794847   -0.24919698368844
C        -1.90654299490423    2.97749867542827   -0.53437539866908
H        -1.89311451181487    3.94154854986924   -1.01994388963374
H        -4.05855965778313    0.65496528754715    0.67800286782823
H        -1.95521234152169   -0.45175376405726    1.18978622288057
H         0.18429248240176    0.57306868756582    0.62184411244321
C         0.55547766034242    3.00770449985230   -0.65926696751699
C         1.80725506878784    2.47187371266244   -0.01544675183842
O         0.56047744133214    3.91878300073547   -1.46612034242072
C         3.08853756716255    3.18878390952842   -0.42405855939146
H         1.90839501680350    1.42441076201568   -0.30799922704477
H         1.68621117794482    2.49578484314059    1.07010281171248
C         4.26068808781717    2.47018983353848    0.19218543986334
C         3.16431838611981    4.64178821561971   -0.03850529427892
H         3.19802853945209    3.12915893611532   -1.51391178751178
C         2.28924347609609    5.26558017620666    0.84368944654593
C         2.44720858933426    6.60351955274366    1.15149232925228
O        -4.23757205675855    3.10729259861848   -0.52272982209244
C        -5.49982219662067    2.55601856326204   -0.20640131599541
H        -5.66453384576064    1.62037683252435   -0.74858983774502
H        -6.23232043629853    3.29497668341753   -0.52341839856993
H        -5.59453289715129    2.38456877022984    0.86961860962195