      -----------------------------------------------------------      
     |                   =====================                   |     
     |                           x T B                           |     
     |                   =====================                   |     
     |                         S. Grimme                         |     
     |          Mulliken Center for Theoretical Chemistry        |     
     |                    University of Bonn                     |     
      -----------------------------------------------------------      

   * xtb version 6.4.1 (afa7bdf) compiled by 'ehlert@majestix' on 2021-06-10

   xtb is free software: you can redistribute it and/or modify it under
   the terms of the GNU Lesser General Public License as published by
   the Free Software Foundation, either version 3 of the License, or
   (at your option) any later version.
   
   xtb is distributed in the hope that it will be useful,
   but WITHOUT ANY WARRANTY; without even the implied warranty of
   MERCHANTABILITY or FITNESS FOR A PARTICULAR PURPOSE.  See the
   GNU Lesser General Public License for more details.
   
   Cite this work as:
   * C. Bannwarth, E. Caldeweyher, S. Ehlert, A. Hansen, P. Pracht,
     J. Seibert, S. Spicher, S. Grimme, WIREs Comput. Mol. Sci., 2020, 11,
     e01493. DOI: 10.1002/wcms.1493
   
   for GFN2-xTB:
   * C. Bannwarth, S. Ehlert and S. Grimme., J. Chem. Theory Comput., 2019,
     15, 1652-1671. DOI: 10.1021/acs.jctc.8b01176
   for GFN1-xTB:
   * S. Grimme, C. Bannwarth, P. Shushkov, J. Chem. Theory Comput., 2017,
     13, 1989-2009. DOI: 10.1021/acs.jctc.7b00118
   for GFN0-xTB:
   * P. Pracht, E. Caldeweyher, S. Ehlert, S. Grimme, ChemRxiv, 2019, preprint.
     DOI: 10.26434/chemrxiv.8326202.v1
   for GFN-FF:
   * S. Spicher and S. Grimme, Angew. Chem. Int. Ed., 2020, 59, 15665-15673.
     DOI: 10.1002/anie.202004239
   
   for DFT-D4:
   * E. Caldeweyher, C. Bannwarth and S. Grimme, J. Chem. Phys., 2017,
     147, 034112. DOI: 10.1063/1.4993215
   * E. Caldeweyher, S. Ehlert, A. Hansen, H. Neugebauer, S. Spicher,
     C. Bannwarth and S. Grimme, J. Chem. Phys., 2019, 150, 154122.
     DOI: 10.1063/1.5090222
   * E. Caldeweyher, J.-M. Mewes, S. Ehlert and S. Grimme, Phys. Chem. Chem. Phys.
     2020, 22, 8499-8512. DOI: 10.1039/D0CP00502A
   
   for sTDA-xTB:
   * S. Grimme and C. Bannwarth, J. Chem. Phys., 2016, 145, 054103.
     DOI: 10.1063/1.4959605
   
   in the mass-spec context:
   * V. Asgeirsson, C. Bauer and S. Grimme, Chem. Sci., 2017, 8, 4879.
     DOI: 10.1039/c7sc00601b
   * J. Koopman and S. Grimme, ACS Omega 2019, 4, 12, 15120-15133.
     DOI: 10.1021/acsomega.9b02011
   
   for metadynamics refer to:
   * S. Grimme, J. Chem. Theory Comput., 2019, 155, 2847-2862
     DOI: 10.1021/acs.jctc.9b00143
   
   for SPH calculations refer to:
   * S. Spicher and S. Grimme, J. Chem. Theory Comput., 2021, 17, 1701-1714
     DOI: 10.1021/acs.jctc.0c01306
   
   with help from (in alphabetical order)
   P. Atkinson, C. Bannwarth, F. Bohle, G. Brandenburg, E. Caldeweyher
   M. Checinski, S. Dohm, S. Ehlert, S. Ehrlich, I. Gerasimov, J. Koopman
   C. Lavigne, S. Lehtola, F. März, M. Müller, F. Musil, H. Neugebauer
   J. Pisarek, C. Plett, P. Pracht, J. Seibert, P. Shushkov, S. Spicher
   M. Stahn, M. Steiner, T. Strunk, J. Stückrath, T. Rose, and J. Unsleber
   
 * started run on 2022/03/02 at 09:59:54.395     

           -------------------------------------------------
          |                Calculation Setup                |
           -------------------------------------------------

          program call               : xtb Keton-CLi.xyz --opt --alpb thf
          hostname                   : clu
          coordinate file            : Keton-CLi.xyz
          omp threads                :                     4
          number of atoms            :                    21
          number of electrons        :                    58
          charge                     :                     0
          spin                       :                   0.0
          first test random number   :      0.35791264354371

   ID    Z sym.   atoms
    1    6 C      1-6, 12, 16, 17
    2    1 H      7-10, 13-15, 18, 20
    3    8 O      11, 21
    4    3 Li     19

           -------------------------------------------------
          |                 G F N 2 - x T B                 |
           -------------------------------------------------

        Reference                      10.1021/acs.jctc.8b01176
      * Hamiltonian:
        H0-scaling (s, p, d)           1.850000    2.230000    2.230000
        zeta-weighting                 0.500000
      * Dispersion:
        s8                             2.700000
        a1                             0.520000
        a2                             5.000000
        s9                             5.000000
      * Repulsion:
        kExp                           1.500000    1.000000
        rExp                           1.000000
      * Coulomb:
        alpha                          2.000000
        third order                    shell-resolved
        anisotropic                    true
        a3                             3.000000
        a5                             4.000000
        cn-shift                       1.200000
        cn-exp                         4.000000
        max-rad                        5.000000

      * Solvation model:               ALPB
        Solvent                        thf
        Parameter file                 internal GFN2-xTB/ALPB
        Dielectric constant                7.6000E+00
        Reference state                gsolv [1 M gas/solution]
        Free energy shift                  5.3248E-03 Eh       3.3414E+00 kcal/mol
        Temperature                        2.9815E+02 K
        Density                            8.8300E-01 kg/L
        Solvent mass                       7.2106E+01 g/mol
        Interaction kernel             P16
        Born radius scaling (c1)           1.7311E+00
        Born radii integrator          GBOBC
        Born offset                        0.0000E+00 a0       0.0000E+00 AA
        H-bond correction              true
        Ion screening                  false
        Surface tension                    1.0000E-05 Eh       1.5569E+01 dyn/cm
        Grid points                               230 per atom

          ...................................................
          :                      SETUP                      :
          :.................................................:
          :  # basis functions                  57          :
          :  # atomic orbitals                  57          :
          :  # shells                           33          :
          :  # electrons                        58          :
          :  max. iterations                   250          :
          :  Hamiltonian                  GFN2-xTB          :
          :  restarted?                      false          :
          :  GBSA solvation                   true          :
          :  PC potential                    false          :
          :  electronic temp.          300.0000000     K    :
          :  accuracy                    1.0000000          :
          :  -> integral cutoff          0.2500000E+02      :
          :  -> integral neglect         0.1000000E-07      :
          :  -> SCF convergence          0.1000000E-05 Eh   :
          :  -> wf. convergence          0.1000000E-03 e    :
          :  Broyden damping             0.4000000          :
          ...................................................

 iter      E             dE          RMSdq      gap      omega  full diag
   1    -32.5730760 -0.325731E+02  0.558E+00    2.46       0.0  T
   2    -32.6374524 -0.643764E-01  0.307E+00    1.64       1.0  T
   3    -32.6321335  0.531885E-02  0.163E+00    1.17       1.0  T
   4    -32.6470328 -0.148993E-01  0.358E-01    1.23       1.0  T
   5    -32.6482522 -0.121948E-02  0.142E-01    1.17       1.0  T
   6    -32.6483451 -0.929017E-04  0.853E-02    1.21       1.0  T
   7    -32.6483549 -0.973404E-05  0.297E-02    1.23       1.0  T
   8    -32.6483583 -0.347512E-05  0.116E-02    1.22       1.9  T
   9    -32.6483592 -0.898970E-06  0.361E-03    1.22       6.0  T
  10    -32.6483593 -0.509800E-07  0.180E-03    1.22      12.1  T
  11    -32.6483593 -0.948454E-08  0.872E-04    1.22      25.0  T
  12    -32.6483593 -0.494687E-08  0.287E-04    1.22      76.0  T

   *** convergence criteria satisfied after 12 iterations ***

         #    Occupation            Energy/Eh            Energy/eV
      -------------------------------------------------------------
         1        2.0000           -0.7173910             -19.5212
       ...           ...                  ...                  ...
        23        2.0000           -0.4388908             -11.9428
        24        2.0000           -0.4230062             -11.5106
        25        2.0000           -0.4191395             -11.4054
        26        2.0000           -0.4026272             -10.9560
        27        2.0000           -0.3771907             -10.2639
        28        2.0000           -0.3691419             -10.0449
        29        2.0000           -0.3096913              -8.4271 (HOMO)
        30                         -0.2649475              -7.2096 (LUMO)
        31                         -0.2190073              -5.9595
        32                         -0.2004782              -5.4553
        33                         -0.1813833              -4.9357
        34                         -0.0858156              -2.3352
       ...                                ...                  ...
        57                          0.6508187              17.7097
      -------------------------------------------------------------
                  HL-Gap            0.0447438 Eh            1.2175 eV
             Fermi-level           -0.2873194 Eh           -7.8184 eV

 SCC (total)                   0 d,  0 h,  0 min,  0.036 sec
 SCC setup                      ...        0 min,  0.001 sec (  2.095%)
 Dispersion                     ...        0 min,  0.000 sec (  1.094%)
 classical contributions        ...        0 min,  0.000 sec (  0.149%)
 integral evaluation            ...        0 min,  0.003 sec (  8.958%)
 iterations                     ...        0 min,  0.025 sec ( 67.970%)
 molecular gradient             ...        0 min,  0.007 sec ( 18.721%)
 printout                       ...        0 min,  0.000 sec (  0.897%)

         :::::::::::::::::::::::::::::::::::::::::::::::::::::
         ::                     SUMMARY                     ::
         :::::::::::::::::::::::::::::::::::::::::::::::::::::
         :: total energy             -32.227815145188 Eh    ::
         :: total w/o Gsasa/hb       -32.204440048504 Eh    ::
         :: gradient norm              0.069600548763 Eh/a0 ::
         :: HOMO-LUMO gap              1.217540073080 eV    ::
         ::.................................................::
         :: SCC energy               -32.648359312558 Eh    ::
         :: -> isotropic ES            0.078230002541 Eh    ::
         :: -> anisotropic ES          0.007606771231 Eh    ::
         :: -> anisotropic XC          0.008577298286 Eh    ::
         :: -> dispersion             -0.017434563708 Eh    ::
         :: -> Gsolv                  -0.031997280548 Eh    ::
         ::    -> Gelec               -0.008622183864 Eh    ::
         ::    -> Gsasa               -0.028063656933 Eh    ::
         ::    -> Ghb                 -0.000636255195 Eh    ::
         ::    -> Gshift               0.005324815444 Eh    ::
         :: repulsion energy           0.420570857359 Eh    ::
         :: add. restraining           0.000000000000 Eh    ::
         :: total charge               0.000000000000 e     ::
         :::::::::::::::::::::::::::::::::::::::::::::::::::::

      ----------------------------------------------------------- 
     |                   =====================                   |
     |                        A N C O P T                        |
     |                   =====================                   |
     |               Approximate Normal Coordinate               |
     |                Rational Function Optimizer                |
      ----------------------------------------------------------- 

          ...................................................
          :                      SETUP                      :
          :.................................................:
          :   optimization level            normal          :
          :   max. optcycles                   200          :
          :   ANC micro-cycles                  20          :
          :   degrees of freedom                57          :
          :.................................................:
          :   RF solver                   davidson          :
          :   write xtbopt.log                true          :
          :   linear?                        false          :
          :   energy convergence         0.5000000E-05 Eh   :
          :   grad. convergence          0.1000000E-02 Eh/α :
          :   maximium RF displ.         1.0000000          :
          :   Hlow (freq-cutoff)         0.1000000E-01      :
          :   Hmax (freq-cutoff)         5.0000000          :
          :   S6 in model hess.         20.0000000          :
          ...................................................

generating ANC from model Hessian ...
Using Lindh-Hessian (1995)
 Shifting diagonal of input Hessian by   9.026375192906690E-003
 Lowest  eigenvalues of input Hessian
    0.000000    0.000000    0.000000    0.000000    0.000000    0.000000
    0.010000    0.011599    0.012552    0.012830    0.014349    0.016410
    0.017398    0.020592    0.024423    0.026855    0.028815    0.032601
 Highest eigenvalues
    1.601312    1.765634    1.827446    1.927925    2.065748    2.109877
 

........................................................................
.............................. CYCLE    1 ..............................
........................................................................
   1    -32.6483593 -0.326484E+02  0.102E-04    1.22       0.0  T
   2    -32.6483593 -0.350866E-10  0.690E-05    1.22     316.1  T
   3    -32.6483593 -0.110276E-10  0.469E-05    1.22     465.0  T
     SCC iter.                  ...        0 min,  0.009 sec
     gradient                   ...        0 min,  0.008 sec
 * total energy  :   -32.2278151 Eh     change       -0.2998846E-09 Eh
   gradient norm :     0.0695982 Eh/α   predicted     0.0000000E+00 (-100.00%)
   displ. norm   :     0.4289381 α      lambda       -0.1317197E-01
   maximum displ.:     0.2489251 α      in ANC's #7, #8, #11, ...

........................................................................
.............................. CYCLE    2 ..............................
........................................................................
   1    -32.6728422 -0.326728E+02  0.795E-01    1.45       0.0  T
   2    -32.6729180 -0.757944E-04  0.494E-01    1.43       1.0  T
   3    -32.6728500  0.680084E-04  0.721E-02    1.48       1.0  T
   4    -32.6729359 -0.859251E-04  0.210E-02    1.45       1.0  T
   5    -32.6729367 -0.756834E-06  0.127E-02    1.45       1.7  T
   6    -32.6729367 -0.614011E-07  0.517E-03    1.45       4.2  T
   7    -32.6729369 -0.216310E-06  0.143E-03    1.45      15.3  T
   8    -32.6729369 -0.183230E-08  0.539E-04    1.45      40.5  T
   9    -32.6729369 -0.211183E-08  0.207E-04    1.45     105.6  T
     SCC iter.                  ...        0 min,  0.022 sec
     gradient                   ...        0 min,  0.007 sec
 * total energy  :   -32.2375637 Eh     change       -0.9748599E-02 Eh
   gradient norm :     0.0300987 Eh/α   predicted    -0.7798755E-02 ( -20.00%)
   displ. norm   :     0.6023439 α      lambda       -0.8186777E-02
   maximum displ.:     0.4300733 α      in ANC's #7, #8, #3, ...

........................................................................
.............................. CYCLE    3 ..............................
........................................................................
   1    -32.6897452 -0.326897E+02  0.129E+00    1.51       0.0  T
   2    -32.6898292 -0.840162E-04  0.790E-01    1.48       1.0  T
   3    -32.6897340  0.951969E-04  0.903E-02    1.52       1.0  T
   4    -32.6898544 -0.120374E-03  0.370E-02    1.50       1.0  T
   5    -32.6898552 -0.792002E-06  0.188E-02    1.50       1.2  T
   6    -32.6898566 -0.138577E-05  0.405E-03    1.50       5.4  T
   7    -32.6898567 -0.125569E-06  0.130E-03    1.50      16.8  T
   8    -32.6898567 -0.265092E-08  0.569E-04    1.50      38.3  T
   9    -32.6898567 -0.123686E-08  0.184E-04    1.50     118.9  T
     SCC iter.                  ...        0 min,  0.019 sec
     gradient                   ...        0 min,  0.007 sec
 * total energy  :   -32.2440202 Eh     change       -0.6456445E-02 Eh
   gradient norm :     0.0135923 Eh/α   predicted    -0.5578548E-02 ( -13.60%)
   displ. norm   :     0.6960985 α      lambda       -0.6152004E-02
   maximum displ.:     0.4988758 α      in ANC's #7, #3, #8, ...

........................................................................
.............................. CYCLE    4 ..............................
........................................................................
   1    -32.6991467 -0.326991E+02  0.132E+00    1.36       0.0  T
   2    -32.6992635 -0.116859E-03  0.809E-01    1.31       1.0  T
   3    -32.6991405  0.123017E-03  0.117E-01    1.37       1.0  T
   4    -32.6992967 -0.156164E-03  0.452E-02    1.34       1.0  T
   5    -32.6992948  0.184152E-05  0.247E-02    1.34       1.0  T
   6    -32.6992987 -0.384708E-05  0.415E-03    1.34       5.3  T
   7    -32.6992987 -0.706805E-07  0.229E-03    1.34       9.5  T
   8    -32.6992988 -0.483302E-08  0.961E-04    1.34      22.7  T
   9    -32.6992988 -0.337653E-08  0.377E-04    1.34      57.9  T
     SCC iter.                  ...        0 min,  0.019 sec
     gradient                   ...        0 min,  0.007 sec
 * total energy  :   -32.2482107 Eh     change       -0.4190489E-02 Eh
   gradient norm :     0.0233367 Eh/α   predicted    -0.4566491E-02 (   8.97%)
   displ. norm   :     0.3472126 α      lambda       -0.2024646E-02
   maximum displ.:     0.2159804 α      in ANC's #3, #7, #14, ...

........................................................................
.............................. CYCLE    5 ..............................
........................................................................
   1    -32.7011149 -0.327011E+02  0.610E-01    1.23       0.0  T
   2    -32.7011711 -0.562572E-04  0.375E-01    1.19       1.0  T
   3    -32.7011394  0.317386E-04  0.709E-02    1.24       1.0  T
   4    -32.7011823 -0.429044E-04  0.271E-02    1.21       1.0  T
   5    -32.7011816  0.689795E-06  0.161E-02    1.21       1.4  T
   6    -32.7011827 -0.112883E-05  0.514E-03    1.21       4.2  T
   7    -32.7011829 -0.172762E-06  0.149E-03    1.21      14.7  T
   8    -32.7011829 -0.139404E-08  0.851E-04    1.21      25.6  T
   9    -32.7011829 -0.147958E-08  0.341E-04    1.21      63.9  T
     SCC iter.                  ...        0 min,  0.018 sec
     gradient                   ...        0 min,  0.007 sec
 * total energy  :   -32.2493560 Eh     change       -0.1145292E-02 Eh
   gradient norm :     0.0183860 Eh/α   predicted    -0.1134371E-02 (  -0.95%)
   displ. norm   :     0.1514673 α      lambda       -0.9935918E-03
   maximum displ.:     0.0864368 α      in ANC's #8, #3, #7, ...

........................................................................
.............................. CYCLE    6 ..............................
........................................................................
   1    -32.6990302 -0.326990E+02  0.177E-01    1.21       0.0  T
   2    -32.6990397 -0.952928E-05  0.103E-01    1.21       1.0  T
   3    -32.6990346  0.513660E-05  0.208E-02    1.20       1.0  T
   4    -32.6990415 -0.693390E-05  0.736E-03    1.21       3.0  T
   5    -32.6990418 -0.255648E-06  0.338E-03    1.21       6.5  T
   6    -32.6990418 -0.347788E-07  0.155E-03    1.21      14.1  T
   7    -32.6990418 -0.275053E-08  0.810E-04    1.21      26.9  T
   8    -32.6990418 -0.360274E-09  0.342E-04    1.21      63.7  T
     SCC iter.                  ...        0 min,  0.017 sec
     gradient                   ...        0 min,  0.007 sec
 * total energy  :   -32.2499646 Eh     change       -0.6086382E-03 Eh
   gradient norm :     0.0066772 Eh/α   predicted    -0.5082025E-03 ( -16.50%)
   displ. norm   :     0.1544945 α      lambda       -0.2922880E-03
   maximum displ.:     0.1401842 α      in ANC's #3, #8, #14, ...

........................................................................
.............................. CYCLE    7 ..............................
........................................................................
   1    -32.6980963 -0.326981E+02  0.167E-01    1.16       0.0  T
   2    -32.6981003 -0.403964E-05  0.956E-02    1.16       1.0  T
   3    -32.6981001  0.260682E-06  0.115E-02    1.16       1.9  T
   4    -32.6981007 -0.649616E-06  0.603E-03    1.16       3.6  T
   5    -32.6981008 -0.110907E-06  0.312E-03    1.16       7.0  T
   6    -32.6981008  0.544922E-08  0.120E-03    1.16      18.2  T
   7    -32.6981008 -0.109737E-07  0.437E-04    1.16      49.9  T
   8    -32.6981008 -0.818737E-09  0.200E-04    1.16     108.9  T
     SCC iter.                  ...        0 min,  0.017 sec
     gradient                   ...        0 min,  0.007 sec
 * total energy  :   -32.2501451 Eh     change       -0.1804692E-03 Eh
   gradient norm :     0.0039225 Eh/α   predicted    -0.1496765E-03 ( -17.06%)
   displ. norm   :     0.0976880 α      lambda       -0.1067883E-03
   maximum displ.:     0.0739602 α      in ANC's #3, #7, #2, ...

........................................................................
.............................. CYCLE    8 ..............................
........................................................................
   1    -32.6980732 -0.326981E+02  0.889E-02    1.15       0.0  T
   2    -32.6980751 -0.194101E-05  0.526E-02    1.16       1.0  T
   3    -32.6980741  0.101943E-05  0.103E-02    1.16       2.1  T
   4    -32.6980755 -0.137379E-05  0.346E-03    1.16       6.3  T
   5    -32.6980755 -0.192548E-07  0.197E-03    1.16      11.1  T
   6    -32.6980755 -0.102213E-07  0.941E-04    1.16      23.2  T
   7    -32.6980755 -0.197699E-08  0.274E-04    1.16      79.7  T
     SCC iter.                  ...        0 min,  0.015 sec
     gradient                   ...        0 min,  0.007 sec
 * total energy  :   -32.2502345 Eh     change       -0.8941549E-04 Eh
   gradient norm :     0.0037881 Eh/α   predicted    -0.5391130E-04 ( -39.71%)
   displ. norm   :     0.4783067 α      lambda       -0.4854505E-03
   maximum displ.:     0.3297327 α      in ANC's #3, #2, #10, ...

........................................................................
.............................. CYCLE    9 ..............................
........................................................................
   1    -32.6956303 -0.326956E+02  0.404E-01    1.15       0.0  T
   2    -32.6958522 -0.221824E-03  0.262E-01    1.28       1.0  T
   3    -32.6958057  0.464217E-04  0.109E-01    1.21       1.0  T
   4    -32.6959118 -0.106021E-03  0.185E-02    1.26       1.2  T
   5    -32.6959125 -0.742309E-06  0.108E-02    1.26       2.0  T
   6    -32.6959130 -0.461934E-06  0.621E-03    1.26       3.5  T
   7    -32.6959130 -0.516151E-07  0.161E-03    1.26      13.6  T
   8    -32.6959130 -0.810724E-08  0.927E-04    1.26      23.5  T
   9    -32.6959130 -0.170928E-08  0.290E-04    1.26      75.2  T
     SCC iter.                  ...        0 min,  0.019 sec
     gradient                   ...        0 min,  0.007 sec
 * total energy  :   -32.2507488 Eh     change       -0.5143225E-03 Eh
   gradient norm :     0.0212419 Eh/α   predicted    -0.2982945E-03 ( -42.00%)
   displ. norm   :     0.8444975 α      lambda       -0.1031313E-02
   maximum displ.:     0.5430722 α      in ANC's #3, #10, #2, ...

........................................................................
.............................. CYCLE   10 ..............................
........................................................................
   1    -32.6771456 -0.326771E+02  0.776E-01    1.33       0.0  T
   2    -32.6794639 -0.231829E-02  0.582E-01    1.80       1.0  T
   3    -32.6817707 -0.230674E-02  0.276E-01    1.57       1.0  T
   4    -32.6818189 -0.482297E-04  0.669E-02    1.60       1.0  T
   5    -32.6818256 -0.671800E-05  0.236E-02    1.60       1.0  T
   6    -32.6818307 -0.506829E-05  0.122E-02    1.60       1.8  T
   7    -32.6818307 -0.364709E-07  0.320E-03    1.60       6.8  T
   8    -32.6818308 -0.825155E-07  0.185E-03    1.60      11.8  T
   9    -32.6818308  0.947288E-09  0.954E-04    1.60      22.9  T
  10    -32.6818308 -0.459454E-08  0.168E-04    1.60     130.2  T
     SCC iter.                  ...        0 min,  0.021 sec
     gradient                   ...        0 min,  0.007 sec
 * total energy  :   -32.2488676 Eh     change        0.1881246E-02 Eh
   gradient norm :     0.0709025 Eh/α   predicted    -0.8834167E-03 (-146.96%)
   displ. norm   :     0.3908746 α      lambda       -0.5063409E-02
   maximum displ.:     0.2260393 α      in ANC's #3, #10, #2, ...

........................................................................
.............................. CYCLE   11 ..............................
........................................................................
   1    -32.6947980 -0.326948E+02  0.360E-01    1.57       0.0  T
   2    -32.6952958 -0.497795E-03  0.232E-01    1.36       1.0  T
   3    -32.6955056 -0.209785E-03  0.128E-01    1.45       1.0  T
   4    -32.6955443 -0.387297E-04  0.304E-02    1.42       1.0  T
   5    -32.6955465 -0.220891E-05  0.132E-02    1.42       1.7  T
   6    -32.6955473 -0.836152E-06  0.697E-03    1.42       3.1  T
   7    -32.6955474 -0.102540E-06  0.165E-03    1.42      13.2  T
   8    -32.6955475 -0.200630E-07  0.785E-04    1.42      27.8  T
   9    -32.6955475 -0.178202E-08  0.424E-04    1.42      51.5  T
     SCC iter.                  ...        0 min,  0.019 sec
     gradient                   ...        0 min,  0.007 sec
 * total energy  :   -32.2516404 Eh     change       -0.2772833E-02 Eh
   gradient norm :     0.0364317 Eh/α   predicted    -0.2918578E-02 (   5.26%)
   displ. norm   :     0.1168611 α      lambda       -0.1251081E-02
   maximum displ.:     0.0935734 α      in ANC's #3, #8, #15, ...

........................................................................
.............................. CYCLE   12 ..............................
........................................................................
   1    -32.7002460 -0.327002E+02  0.120E-01    1.44       0.0  T
   2    -32.7002535 -0.750172E-05  0.722E-02    1.46       1.0  T
   3    -32.7002442  0.927327E-05  0.305E-02    1.44       1.0  T
   4    -32.7002566 -0.124310E-04  0.664E-03    1.46       3.3  T
   5    -32.7002567 -0.315625E-07  0.311E-03    1.46       7.0  T
   6    -32.7002567 -0.747956E-08  0.160E-03    1.46      13.6  T
   7    -32.7002567 -0.143801E-07  0.256E-04    1.46      85.1  T
   8    -32.7002567 -0.240881E-09  0.122E-04    1.46     178.2  T
     SCC iter.                  ...        0 min,  0.017 sec
     gradient                   ...        0 min,  0.007 sec
 * total energy  :   -32.2527699 Eh     change       -0.1129527E-02 Eh
   gradient norm :     0.0322016 Eh/α   predicted    -0.6340762E-03 ( -43.86%)
   displ. norm   :     0.5061448 α      lambda       -0.7761388E-02
   maximum displ.:     0.2576525 α      in ANC's #10, #15, #13, ...

........................................................................
.............................. CYCLE   13 ..............................
........................................................................
   1    -32.7118395 -0.327118E+02  0.811E-01    1.55       0.0  T
   2    -32.7135106 -0.167114E-02  0.574E-01    1.93       1.0  T
   3    -32.7156506 -0.213997E-02  0.270E-01    1.71       1.0  T
   4    -32.7158108 -0.160194E-03  0.632E-02    1.76       1.0  T
   5    -32.7158138 -0.299809E-05  0.249E-02    1.76       1.0  T
   6    -32.7158176 -0.383312E-05  0.146E-02    1.76       1.5  T
   7    -32.7158179 -0.279232E-06  0.330E-03    1.76       6.6  T
   8    -32.7158180 -0.126812E-06  0.988E-04    1.76      22.1  T
   9    -32.7158180 -0.174884E-08  0.581E-04    1.76      37.6  T
     SCC iter.                  ...        0 min,  0.019 sec
     gradient                   ...        0 min,  0.007 sec
 * total energy  :   -32.2597533 Eh     change       -0.6983338E-02 Eh
   gradient norm :     0.0236309 Eh/α   predicted    -0.4874708E-02 ( -30.20%)
   displ. norm   :     0.8675834 α      lambda       -0.1235133E-01
   maximum displ.:     0.4882651 α      in ANC's #10, #15, #13, ...

........................................................................
.............................. CYCLE   14 ..............................
........................................................................
   1    -32.6934318 -0.326934E+02  0.152E+00    2.18       0.0  T
   2    -32.7002155 -0.678363E-02  0.113E+00    2.71       1.0  T
   3    -32.7140020 -0.137865E-01  0.427E-01    2.35       1.0  T
   4    -32.7141451 -0.143145E-03  0.118E-01    2.35       1.0  T
   5    -32.7141703 -0.251662E-04  0.461E-02    2.37       1.0  T
   6    -32.7141848 -0.144541E-04  0.276E-02    2.37       1.0  T
   7    -32.7141850 -0.273366E-06  0.955E-03    2.37       2.3  T
   8    -32.7141858 -0.820950E-06  0.225E-03    2.37       9.7  T
   9    -32.7141859 -0.540602E-07  0.129E-03    2.37      17.0  T
  10    -32.7141859 -0.133983E-08  0.802E-04    2.37      27.2  T
  11    -32.7141859 -0.314258E-08  0.258E-04    2.37      84.5  T
     SCC iter.                  ...        0 min,  0.023 sec
     gradient                   ...        0 min,  0.007 sec
 * total energy  :   -32.2652113 Eh     change       -0.5458078E-02 Eh
   gradient norm :     0.0735951 Eh/α   predicted    -0.1082361E-01 (  98.30%)
   displ. norm   :     0.2616503 α      lambda       -0.8974461E-02
   maximum displ.:     0.1361953 α      in ANC's #3, #7, #15, ...

........................................................................
.............................. CYCLE   15 ..............................
........................................................................
   1    -32.7212825 -0.327213E+02  0.472E-01    2.36       0.0  T
   2    -32.7214904 -0.207901E-03  0.263E-01    2.27       1.0  T
   3    -32.7216656 -0.175149E-03  0.199E-01    2.36       1.0  T
   4    -32.7219014 -0.235818E-03  0.134E-02    2.33       1.6  T
   5    -32.7219024 -0.107098E-05  0.811E-03    2.33       2.7  T
   6    -32.7219026 -0.157595E-06  0.431E-03    2.33       5.1  T
   7    -32.7219026 -0.380780E-07  0.130E-03    2.33      16.8  T
   8    -32.7219027 -0.106422E-07  0.654E-04    2.33      33.4  T
   9    -32.7219027 -0.862521E-09  0.275E-04    2.33      79.4  T
     SCC iter.                  ...        0 min,  0.019 sec
     gradient                   ...        0 min,  0.007 sec
 * total energy  :   -32.2704687 Eh     change       -0.5257380E-02 Eh
   gradient norm :     0.0355562 Eh/α   predicted    -0.4794526E-02 (  -8.80%)
   displ. norm   :     0.4474182 α      lambda       -0.5321097E-02
   maximum displ.:     0.1715025 α      in ANC's #10, #3, #7, ...

........................................................................
.............................. CYCLE   16 ..............................
........................................................................
   1    -32.7233964 -0.327234E+02  0.569E-01    2.46       0.0  T
   2    -32.7239310 -0.534580E-03  0.425E-01    2.56       1.0  T
   3    -32.7246996 -0.768567E-03  0.204E-01    2.46       1.0  T
   4    -32.7248376 -0.138055E-03  0.362E-02    2.49       1.0  T
   5    -32.7248413 -0.368749E-05  0.117E-02    2.49       1.9  T
   6    -32.7248423 -0.930205E-06  0.634E-03    2.49       3.4  T
   7    -32.7248423 -0.960100E-08  0.252E-03    2.49       8.6  T
   8    -32.7248423 -0.366289E-07  0.885E-04    2.49      24.7  T
   9    -32.7248423 -0.224808E-08  0.502E-04    2.49      43.5  T
     SCC iter.                  ...        0 min,  0.019 sec
     gradient                   ...        0 min,  0.007 sec
 * total energy  :   -32.2744728 Eh     change       -0.4004046E-02 Eh
   gradient norm :     0.0274846 Eh/α   predicted    -0.3193246E-02 ( -20.25%)
   displ. norm   :     0.6684430 α      lambda       -0.7190809E-02
   maximum displ.:     0.3406965 α      in ANC's #10, #3, #7, ...

........................................................................
.............................. CYCLE   17 ..............................
........................................................................
   1    -32.7271170 -0.327271E+02  0.566E-01    2.57       0.0  T
   2    -32.7273336 -0.216615E-03  0.322E-01    2.64       1.0  T
   3    -32.7272038  0.129790E-03  0.247E-01    2.55       1.0  T
   4    -32.7276958 -0.492012E-03  0.324E-02    2.58       1.0  T
   5    -32.7276964 -0.557115E-06  0.208E-02    2.59       1.1  T
   6    -32.7276987 -0.231463E-05  0.624E-03    2.59       3.5  T
   7    -32.7276987 -0.695400E-07  0.234E-03    2.59       9.3  T
   8    -32.7276988 -0.463046E-07  0.878E-04    2.59      24.9  T
   9    -32.7276988 -0.157595E-08  0.525E-04    2.59      41.6  T
     SCC iter.                  ...        0 min,  0.019 sec
     gradient                   ...        0 min,  0.007 sec
 * total energy  :   -32.2760960 Eh     change       -0.1623252E-02 Eh
   gradient norm :     0.0605083 Eh/α   predicted    -0.5202113E-02 ( 220.47%)
   displ. norm   :     0.2904476 α      lambda       -0.7407649E-02
   maximum displ.:     0.1509985 α      in ANC's #3, #4, #10, ...

........................................................................
.............................. CYCLE   18 ..............................
........................................................................
   1    -32.7376764 -0.327377E+02  0.468E-01    2.60       0.0  T
   2    -32.7378775 -0.201110E-03  0.354E-01    2.64       1.0  T
   3    -32.7380915 -0.213996E-03  0.158E-01    2.58       1.0  T
   4    -32.7382811 -0.189556E-03  0.382E-02    2.61       1.0  T
   5    -32.7382865 -0.541841E-05  0.117E-02    2.61       1.9  T
   6    -32.7382875 -0.102438E-05  0.523E-03    2.61       4.2  T
   7    -32.7382876 -0.706717E-07  0.197E-03    2.61      11.1  T
   8    -32.7382876 -0.175779E-07  0.929E-04    2.61      23.5  T
   9    -32.7382876 -0.148563E-08  0.340E-04    2.61      64.1  T
     SCC iter.                  ...        0 min,  0.019 sec
     gradient                   ...        0 min,  0.007 sec
 * total energy  :   -32.2799076 Eh     change       -0.3811549E-02 Eh
   gradient norm :     0.0351765 Eh/α   predicted    -0.4016216E-02 (   5.37%)
   displ. norm   :     0.2436341 α      lambda       -0.4052030E-02
   maximum displ.:     0.1068246 α      in ANC's #6, #3, #15, ...

........................................................................
.............................. CYCLE   19 ..............................
........................................................................
   1    -32.7471253 -0.327471E+02  0.377E-01    2.68       0.0  T
   2    -32.7471388 -0.134657E-04  0.212E-01    2.68       1.0  T
   3    -32.7471283  0.104980E-04  0.336E-02    2.68       1.0  T
   4    -32.7471424 -0.141211E-04  0.123E-02    2.68       1.8  T
   5    -32.7471425 -0.704522E-07  0.610E-03    2.68       3.6  T
   6    -32.7471425 -0.537421E-07  0.331E-03    2.68       6.6  T
   7    -32.7471426 -0.818441E-07  0.104E-03    2.68      20.9  T
   8    -32.7471426 -0.381610E-08  0.429E-04    2.68      50.8  T
   9    -32.7471426 -0.478288E-09  0.181E-04    2.68     120.4  T
     SCC iter.                  ...        0 min,  0.019 sec
     gradient                   ...        0 min,  0.007 sec
 * total energy  :   -32.2806455 Eh     change       -0.7378968E-03 Eh
   gradient norm :     0.0471392 Eh/α   predicted    -0.2146240E-02 ( 190.86%)
   displ. norm   :     0.4196462 α      lambda       -0.6038620E-02
   maximum displ.:     0.2443638 α      in ANC's #3, #10, #15, ...

........................................................................
.............................. CYCLE   20 ..............................
........................................................................
   1    -32.7396485 -0.327396E+02  0.495E-01    2.73       0.0  T
   2    -32.7400740 -0.425499E-03  0.317E-01    2.82       1.0  T
   3    -32.7406156 -0.541516E-03  0.188E-01    2.75       1.0  T
   4    -32.7407504 -0.134878E-03  0.346E-02    2.76       1.0  T
   5    -32.7407521 -0.169274E-05  0.229E-02    2.76       1.0  T
   6    -32.7407537 -0.153808E-05  0.711E-03    2.77       3.1  T
   7    -32.7407540 -0.324703E-06  0.288E-03    2.77       7.6  T
   8    -32.7407540 -0.238091E-07  0.624E-04    2.77      35.0  T
   9    -32.7407540 -0.947495E-09  0.367E-04    2.77      59.4  T
     SCC iter.                  ...        0 min,  0.019 sec
     gradient                   ...        0 min,  0.007 sec
 * total energy  :   -32.2841413 Eh     change       -0.3495845E-02 Eh
   gradient norm :     0.0260706 Eh/α   predicted    -0.3550947E-02 (   1.58%)
   displ. norm   :     0.3703420 α      lambda       -0.3261186E-02
   maximum displ.:     0.2382418 α      in ANC's #3, #2, #6, ...
 * RMSD in coord.:     1.0490915 α      energy gain  -0.5632617E-01 Eh

generating ANC from model Hessian ...
Using Lindh-Hessian (1995)
 Shifting diagonal of input Hessian by   8.680237971826883E-003
 Lowest  eigenvalues of input Hessian
    0.000000    0.000000    0.000000    0.000000    0.000000    0.000000
    0.010000    0.011112    0.012284    0.013848    0.014521    0.018027
    0.020287    0.025416    0.025986    0.032848    0.033090    0.036898
 Highest eigenvalues
    1.732073    1.750601    1.883501    1.997634    2.048175    2.101302
 

........................................................................
.............................. CYCLE   21 ..............................
........................................................................
   1    -32.7469442 -0.327469E+02  0.393E-01    2.74       0.0  T
   2    -32.7469493 -0.511262E-05  0.222E-01    2.74       1.0  T
   3    -32.7469490  0.313078E-06  0.174E-02    2.74       1.3  T
   4    -32.7469510 -0.200089E-05  0.864E-03    2.74       2.5  T
   5    -32.7469511 -0.162497E-06  0.238E-03    2.74       9.2  T
   6    -32.7469512 -0.153357E-07  0.108E-03    2.74      20.2  T
   7    -32.7469512 -0.637111E-08  0.526E-04    2.74      41.5  T
   8    -32.7469512 -0.128367E-08  0.339E-04    2.74      64.4  T
     SCC iter.                  ...        0 min,  0.017 sec
     gradient                   ...        0 min,  0.007 sec
 * total energy  :   -32.2857278 Eh     change       -0.1586466E-02 Eh
   gradient norm :     0.0389559 Eh/α   predicted     0.0000000E+00 (-100.00%)
   displ. norm   :     0.2612839 α      lambda       -0.3268229E-02
   maximum displ.:     0.1172363 α      in ANC's #7, #3, #2, ...

........................................................................
.............................. CYCLE   22 ..............................
........................................................................
   1    -32.7513328 -0.327513E+02  0.265E-01    2.76       0.0  T
   2    -32.7513979 -0.650236E-04  0.171E-01    2.80       1.0  T
   3    -32.7514545 -0.566357E-04  0.101E-01    2.76       1.0  T
   4    -32.7515165 -0.619821E-04  0.106E-02    2.77       2.1  T
   5    -32.7515171 -0.587977E-06  0.637E-03    2.77       3.4  T
   6    -32.7515172 -0.180322E-06  0.239E-03    2.78       9.1  T
   7    -32.7515173 -0.169098E-07  0.146E-03    2.78      14.9  T
   8    -32.7515173 -0.428080E-08  0.549E-04    2.77      39.7  T
   9    -32.7515173 -0.479645E-09  0.223E-04    2.77      97.7  T
     SCC iter.                  ...        0 min,  0.019 sec
     gradient                   ...        0 min,  0.007 sec
 * total energy  :   -32.2881252 Eh     change       -0.2397405E-02 Eh
   gradient norm :     0.0194105 Eh/α   predicted    -0.1746187E-02 ( -27.16%)
   displ. norm   :     0.3336208 α      lambda       -0.2223418E-02
   maximum displ.:     0.1352603 α      in ANC's #1, #2, #6, ...

........................................................................
.............................. CYCLE   23 ..............................
........................................................................
   1    -32.7551240 -0.327551E+02  0.318E-01    2.80       0.0  T
   2    -32.7552160 -0.920503E-04  0.203E-01    2.85       1.0  T
   3    -32.7552716 -0.555918E-04  0.123E-01    2.81       1.0  T
   4    -32.7553610 -0.893668E-04  0.112E-02    2.83       1.9  T
   5    -32.7553623 -0.137268E-05  0.531E-03    2.83       4.1  T
   6    -32.7553624 -0.816873E-07  0.203E-03    2.83      10.7  T
   7    -32.7553625 -0.421475E-07  0.703E-04    2.83      31.1  T
   8    -32.7553625 -0.951943E-09  0.350E-04    2.83      62.4  T
     SCC iter.                  ...        0 min,  0.017 sec
     gradient                   ...        0 min,  0.006 sec
 * total energy  :   -32.2896915 Eh     change       -0.1566279E-02 Eh
   gradient norm :     0.0088003 Eh/α   predicted    -0.1235916E-02 ( -21.09%)
   displ. norm   :     0.3849380 α      lambda       -0.1299372E-02
   maximum displ.:     0.1763887 α      in ANC's #1, #7, #2, ...

........................................................................
.............................. CYCLE   24 ..............................
........................................................................
   1    -32.7547750 -0.327548E+02  0.344E-01    2.84       0.0  T
   2    -32.7548514 -0.764082E-04  0.200E-01    2.89       1.0  T
   3    -32.7548093  0.421766E-04  0.139E-01    2.85       1.0  T
   4    -32.7549503 -0.141030E-03  0.175E-02    2.87       1.2  T
   5    -32.7549514 -0.107658E-05  0.122E-02    2.87       1.8  T
   6    -32.7549515 -0.114098E-06  0.397E-03    2.87       5.5  T
   7    -32.7549516 -0.157733E-06  0.788E-04    2.87      27.7  T
   8    -32.7549516 -0.136345E-08  0.273E-04    2.87      80.0  T
     SCC iter.                  ...        0 min,  0.017 sec
     gradient                   ...        0 min,  0.007 sec
 * total energy  :   -32.2905696 Eh     change       -0.8781770E-03 Eh
   gradient norm :     0.0173403 Eh/α   predicted    -0.7459571E-03 ( -15.06%)
   displ. norm   :     0.3578522 α      lambda       -0.1144858E-02
   maximum displ.:     0.1964698 α      in ANC's #1, #13, #3, ...

........................................................................
.............................. CYCLE   25 ..............................
........................................................................
   1    -32.7574803 -0.327575E+02  0.326E-01    2.86       0.0  T
   2    -32.7575015 -0.211827E-04  0.191E-01    2.88       1.0  T
   3    -32.7574193  0.821809E-04  0.915E-02    2.86       1.0  T
   4    -32.7575165 -0.971501E-04  0.189E-02    2.88       1.2  T
   5    -32.7575166 -0.755510E-07  0.140E-02    2.88       1.6  T
   6    -32.7575168 -0.229496E-06  0.227E-03    2.88       9.6  T
   7    -32.7575169 -0.925039E-07  0.564E-04    2.88      38.7  T
   8    -32.7575169 -0.460709E-09  0.206E-04    2.88     106.0  T
     SCC iter.                  ...        0 min,  0.017 sec
     gradient                   ...        0 min,  0.007 sec
 * total energy  :   -32.2913994 Eh     change       -0.8297602E-03 Eh
   gradient norm :     0.0155149 Eh/α   predicted    -0.6457544E-03 ( -22.18%)
   displ. norm   :     0.4149757 α      lambda       -0.9686130E-03
   maximum displ.:     0.2405004 α      in ANC's #1, #13, #7, ...

........................................................................
.............................. CYCLE   26 ..............................
........................................................................
   1    -32.7574515 -0.327575E+02  0.363E-01    2.82       0.0  T
   2    -32.7574764 -0.249428E-04  0.210E-01    2.85       1.0  T
   3    -32.7574366  0.398401E-04  0.822E-02    2.84       1.0  T
   4    -32.7574834 -0.468287E-04  0.340E-02    2.85       1.0  T
   5    -32.7574818  0.162020E-05  0.244E-02    2.85       1.0  T
   6    -32.7574839 -0.215597E-05  0.284E-03    2.85       7.7  T
   7    -32.7574841 -0.163850E-06  0.516E-04    2.85      42.3  T
   8    -32.7574841 -0.561599E-09  0.302E-04    2.85      72.2  T
     SCC iter.                  ...        0 min,  0.017 sec
     gradient                   ...        0 min,  0.007 sec
 * total energy  :   -32.2921308 Eh     change       -0.7314417E-03 Eh
   gradient norm :     0.0134484 Eh/α   predicted    -0.5677065E-03 ( -22.39%)
   displ. norm   :     0.4461649 α      lambda       -0.1246577E-02
   maximum displ.:     0.2445701 α      in ANC's #1, #13, #11, ...

........................................................................
.............................. CYCLE   27 ..............................
........................................................................
   1    -32.7609070 -0.327609E+02  0.444E-01    2.74       0.0  T
   2    -32.7609256 -0.185745E-04  0.260E-01    2.75       1.0  T
   3    -32.7608565  0.690514E-04  0.771E-02    2.76       1.0  T
   4    -32.7609336 -0.771175E-04  0.405E-02    2.74       1.0  T
   5    -32.7609359 -0.223899E-05  0.105E-02    2.75       2.1  T
   6    -32.7609364 -0.508259E-06  0.291E-03    2.75       7.5  T
   7    -32.7609365 -0.980066E-07  0.857E-04    2.75      25.5  T
   8    -32.7609365 -0.156182E-08  0.358E-04    2.75      61.0  T
     SCC iter.                  ...        0 min,  0.017 sec
     gradient                   ...        0 min,  0.007 sec
 * total energy  :   -32.2929938 Eh     change       -0.8629980E-03 Eh
   gradient norm :     0.0167976 Eh/α   predicted    -0.7473631E-03 ( -13.40%)
   displ. norm   :     0.5150891 α      lambda       -0.1133200E-02
   maximum displ.:     0.2609957 α      in ANC's #1, #13, #11, ...

........................................................................
.............................. CYCLE   28 ..............................
........................................................................
   1    -32.7575212 -0.327575E+02  0.478E-01    2.65       0.0  T
   2    -32.7575619 -0.406640E-04  0.281E-01    2.68       1.0  T
   3    -32.7574127  0.149124E-03  0.135E-01    2.65       1.0  T
   4    -32.7575838 -0.171078E-03  0.402E-02    2.67       1.0  T
   5    -32.7575822  0.161200E-05  0.257E-02    2.67       1.0  T
   6    -32.7575846 -0.239243E-05  0.279E-03    2.68       7.8  T
   7    -32.7575847 -0.144099E-06  0.733E-04    2.68      29.8  T
   8    -32.7575847 -0.606221E-09  0.371E-04    2.68      58.9  T
     SCC iter.                  ...        0 min,  0.017 sec
     gradient                   ...        0 min,  0.006 sec
 * total energy  :   -32.2936185 Eh     change       -0.6246722E-03 Eh
   gradient norm :     0.0177701 Eh/α   predicted    -0.7169319E-03 (  14.77%)
   displ. norm   :     0.2154921 α      lambda       -0.1309761E-02
   maximum displ.:     0.1245118 α      in ANC's #3, #11, #13, ...

........................................................................
.............................. CYCLE   29 ..............................
........................................................................
   1    -32.7625406 -0.327625E+02  0.165E-01    2.72       0.0  T
   2    -32.7625438 -0.320955E-05  0.952E-02    2.71       1.0  T
   3    -32.7625416  0.222527E-05  0.149E-02    2.70       1.5  T
   4    -32.7625445 -0.289143E-05  0.673E-03    2.70       3.2  T
   5    -32.7625446 -0.955516E-07  0.320E-03    2.71       6.8  T
   6    -32.7625446 -0.388385E-07  0.123E-03    2.71      17.8  T
   7    -32.7625446 -0.166247E-07  0.343E-04    2.71      63.7  T
   8    -32.7625446 -0.476284E-09  0.130E-04    2.71     167.6  T
     SCC iter.                  ...        0 min,  0.022 sec
     gradient                   ...        0 min,  0.007 sec
 * total energy  :   -32.2946091 Eh     change       -0.9906049E-03 Eh
   gradient norm :     0.0158868 Eh/α   predicted    -0.6852933E-03 ( -30.82%)
   displ. norm   :     0.3465848 α      lambda       -0.1539132E-02
   maximum displ.:     0.1420382 α      in ANC's #13, #11, #3, ...

........................................................................
.............................. CYCLE   30 ..............................
........................................................................
   1    -32.7657135 -0.327657E+02  0.221E-01    2.76       0.0  T
   2    -32.7657228 -0.933517E-05  0.130E-01    2.75       1.0  T
   3    -32.7657164  0.644838E-05  0.334E-02    2.73       1.0  T
   4    -32.7657249 -0.851042E-05  0.161E-02    2.74       1.4  T
   5    -32.7657244  0.476308E-06  0.103E-02    2.74       2.1  T
   6    -32.7657251 -0.655923E-06  0.149E-03    2.74      14.6  T
   7    -32.7657251 -0.401693E-07  0.392E-04    2.74      55.7  T
   8    -32.7657251 -0.516806E-09  0.102E-04    2.74     213.1  T
     SCC iter.                  ...        0 min,  0.022 sec
     gradient                   ...        0 min,  0.007 sec
 * total energy  :   -32.2957750 Eh     change       -0.1165883E-02 Eh
   gradient norm :     0.0142406 Eh/α   predicted    -0.8620084E-03 ( -26.06%)
   displ. norm   :     0.4403813 α      lambda       -0.1483894E-02
   maximum displ.:     0.2184932 α      in ANC's #13, #11, #40, ...

........................................................................
.............................. CYCLE   31 ..............................
........................................................................
   1    -32.7679057 -0.327679E+02  0.328E-01    2.70       0.0  T
   2    -32.7679201 -0.144702E-04  0.193E-01    2.70       1.0  T
   3    -32.7678992  0.209462E-04  0.537E-02    2.66       1.0  T
   4    -32.7679244 -0.252520E-04  0.227E-02    2.68       1.0  T
   5    -32.7679240  0.421513E-06  0.124E-02    2.68       1.8  T
   6    -32.7679247 -0.722543E-06  0.202E-03    2.68      10.8  T
   7    -32.7679248 -0.586326E-07  0.595E-04    2.68      36.7  T
   8    -32.7679248 -0.196565E-08  0.165E-04    2.68     132.2  T
     SCC iter.                  ...        0 min,  0.017 sec
     gradient                   ...        0 min,  0.007 sec
 * total energy  :   -32.2968887 Eh     change       -0.1113733E-02 Eh
   gradient norm :     0.0164828 Eh/α   predicted    -0.8858399E-03 ( -20.46%)
   displ. norm   :     0.4534431 α      lambda       -0.1992777E-02
   maximum displ.:     0.1747198 α      in ANC's #40, #5, #4, ...

........................................................................
.............................. CYCLE   32 ..............................
........................................................................
   1    -32.7733315 -0.327733E+02  0.300E-01    2.83       0.0  T
   2    -32.7733510 -0.194628E-04  0.174E-01    2.84       1.0  T
   3    -32.7732417  0.109286E-03  0.104E-01    2.81       1.0  T
   4    -32.7733782 -0.136498E-03  0.151E-02    2.82       1.4  T
   5    -32.7733782 -0.379148E-07  0.889E-03    2.82       2.5  T
   6    -32.7733783 -0.512085E-07  0.285E-03    2.82       7.7  T
   7    -32.7733784 -0.932663E-07  0.471E-04    2.82      46.3  T
   8    -32.7733784 -0.688338E-09  0.297E-04    2.82      73.4  T
     SCC iter.                  ...        0 min,  0.017 sec
     gradient                   ...        0 min,  0.006 sec
 * total energy  :   -32.2978723 Eh     change       -0.9836054E-03 Eh
   gradient norm :     0.0176202 Eh/α   predicted    -0.1201264E-02 (  22.13%)
   displ. norm   :     0.5818209 α      lambda       -0.1949835E-02
   maximum displ.:     0.2659748 α      in ANC's #13, #11, #4, ...

........................................................................
.............................. CYCLE   33 ..............................
........................................................................
   1    -32.7642637 -0.327643E+02  0.532E-01    2.61       0.0  T
   2    -32.7642898 -0.260649E-04  0.312E-01    2.60       1.0  T
   3    -32.7640711  0.218651E-03  0.134E-01    2.54       1.0  T
   4    -32.7643197 -0.248547E-03  0.203E-02    2.56       1.1  T
   5    -32.7643198 -0.135863E-06  0.990E-03    2.57       2.2  T
   6    -32.7643199 -0.789760E-07  0.450E-03    2.58       4.8  T
   7    -32.7643200 -0.128219E-06  0.118E-03    2.58      18.5  T
   8    -32.7643200 -0.677095E-08  0.270E-04    2.58      80.7  T
   9    -32.7643200 -0.221576E-09  0.132E-04    2.58     165.9  T
     SCC iter.                  ...        0 min,  0.019 sec
     gradient                   ...        0 min,  0.007 sec
 * total energy  :   -32.2981808 Eh     change       -0.3085066E-03 Eh
   gradient norm :     0.0199585 Eh/α   predicted    -0.1304946E-02 ( 322.99%)
   displ. norm   :     0.2766440 α      lambda       -0.1781738E-02
   maximum displ.:     0.1259112 α      in ANC's #13, #1, #11, ...

........................................................................
.............................. CYCLE   34 ..............................
........................................................................
   1    -32.7716178 -0.327716E+02  0.267E-01    2.69       0.0  T
   2    -32.7716314 -0.136753E-04  0.154E-01    2.68       1.0  T
   3    -32.7715564  0.750066E-04  0.815E-02    2.72       1.0  T
   4    -32.7716464 -0.899786E-04  0.927E-03    2.70       2.4  T
   5    -32.7716467 -0.328885E-06  0.400E-03    2.70       5.4  T
   6    -32.7716468 -0.854548E-07  0.209E-03    2.70      10.4  T
   7    -32.7716468 -0.704821E-08  0.806E-04    2.70      27.1  T
   8    -32.7716468 -0.194954E-08  0.267E-04    2.70      81.8  T
     SCC iter.                  ...        0 min,  0.017 sec
     gradient                   ...        0 min,  0.007 sec
 * total energy  :   -32.2991984 Eh     change       -0.1017520E-02 Eh
   gradient norm :     0.0093321 Eh/α   predicted    -0.9590496E-03 (  -5.75%)
   displ. norm   :     0.2728503 α      lambda       -0.6386705E-03
   maximum displ.:     0.1614108 α      in ANC's #3, #1, #4, ...

........................................................................
.............................. CYCLE   35 ..............................
........................................................................
   1    -32.7727527 -0.327728E+02  0.116E-01    2.74       0.0  T
   2    -32.7727583 -0.554236E-05  0.699E-02    2.75       1.0  T
   3    -32.7727508  0.751787E-05  0.514E-02    2.74       1.0  T
   4    -32.7727730 -0.222032E-04  0.738E-03    2.74       3.0  T
   5    -32.7727730 -0.741143E-08  0.416E-03    2.74       5.2  T
   6    -32.7727730 -0.240088E-07  0.143E-03    2.74      15.3  T
   7    -32.7727730 -0.235648E-07  0.339E-04    2.74      64.3  T
   8    -32.7727730 -0.620354E-09  0.126E-04    2.74     172.9  T
     SCC iter.                  ...        0 min,  0.017 sec
     gradient                   ...        0 min,  0.007 sec
 * total energy  :   -32.2996712 Eh     change       -0.4728300E-03 Eh
   gradient norm :     0.0058870 Eh/α   predicted    -0.3431125E-03 ( -27.43%)
   displ. norm   :     0.3910840 α      lambda       -0.5428017E-03
   maximum displ.:     0.2218622 α      in ANC's #3, #4, #5, ...

........................................................................
.............................. CYCLE   36 ..............................
........................................................................
   1    -32.7716885 -0.327717E+02  0.155E-01    2.70       0.0  T
   2    -32.7716902 -0.174115E-05  0.926E-02    2.70       1.0  T
   3    -32.7716881  0.207376E-05  0.184E-02    2.69       1.2  T
   4    -32.7716909 -0.274430E-05  0.109E-02    2.69       2.0  T
   5    -32.7716908  0.320606E-07  0.393E-03    2.69       5.6  T
   6    -32.7716911 -0.265113E-06  0.542E-04    2.69      40.3  T
   7    -32.7716911 -0.373595E-08  0.276E-04    2.69      79.0  T
     SCC iter.                  ...        0 min,  0.015 sec
     gradient                   ...        0 min,  0.007 sec
 * total energy  :   -32.2999691 Eh     change       -0.2978817E-03 Eh
   gradient norm :     0.0087938 Eh/α   predicted    -0.3129121E-03 (   5.05%)
   displ. norm   :     0.1442891 α      lambda       -0.2299450E-03
   maximum displ.:     0.0693619 α      in ANC's #3, #1, #4, ...

........................................................................
.............................. CYCLE   37 ..............................
........................................................................
   1    -32.7704019 -0.327704E+02  0.773E-02    2.74       0.0  T
   2    -32.7704132 -0.112738E-04  0.570E-02    2.75       1.0  T
   3    -32.7704427 -0.294381E-04  0.285E-02    2.74       1.0  T
   4    -32.7704444 -0.172051E-05  0.614E-03    2.74       3.6  T
   5    -32.7704444 -0.681171E-07  0.406E-03    2.75       5.4  T
   6    -32.7704445 -0.109858E-07  0.237E-03    2.75       9.2  T
   7    -32.7704445 -0.169395E-07  0.530E-04    2.75      41.2  T
   8    -32.7704445 -0.128778E-08  0.139E-04    2.75     157.5  T
     SCC iter.                  ...        0 min,  0.017 sec
     gradient                   ...        0 min,  0.007 sec
 * total energy  :   -32.3000801 Eh     change       -0.1110140E-03 Eh
   gradient norm :     0.0066489 Eh/α   predicted    -0.1173717E-03 (   5.73%)
   displ. norm   :     0.1085553 α      lambda       -0.1559134E-03
   maximum displ.:     0.0437622 α      in ANC's #1, #3, #7, ...

........................................................................
.............................. CYCLE   38 ..............................
........................................................................
   1    -32.7724155 -0.327724E+02  0.464E-02    2.74       0.0  T
   2    -32.7724160 -0.437879E-06  0.273E-02    2.74       1.0  T
   3    -32.7724149  0.103302E-05  0.998E-03    2.74       2.2  T
   4    -32.7724162 -0.127225E-05  0.315E-03    2.74       6.9  T
   5    -32.7724162 -0.191925E-08  0.175E-03    2.74      12.4  T
   6    -32.7724162 -0.192557E-07  0.368E-04    2.74      59.4  T
   7    -32.7724162 -0.131971E-08  0.165E-04    2.74     132.2  T
     SCC iter.                  ...        0 min,  0.015 sec
     gradient                   ...        0 min,  0.006 sec
 * total energy  :   -32.3001920 Eh     change       -0.1119046E-03 Eh
   gradient norm :     0.0063895 Eh/α   predicted    -0.7887898E-04 ( -29.51%)
   displ. norm   :     0.1654943 α      lambda       -0.2468926E-03
   maximum displ.:     0.0609510 α      in ANC's #1, #7, #6, ...

........................................................................
.............................. CYCLE   39 ..............................
........................................................................
   1    -32.7740849 -0.327741E+02  0.989E-02    2.74       0.0  T
   2    -32.7740900 -0.510076E-05  0.574E-02    2.73       1.0  T
   3    -32.7740840  0.601528E-05  0.391E-02    2.74       1.0  T
   4    -32.7740985 -0.144452E-04  0.542E-03    2.74       4.0  T
   5    -32.7740986 -0.124105E-06  0.285E-03    2.74       7.7  T
   6    -32.7740986 -0.268773E-07  0.150E-03    2.74      14.5  T
   7    -32.7740986 -0.612301E-08  0.287E-04    2.74      76.1  T
   8    -32.7740986 -0.798813E-09  0.109E-04    2.74     199.9  T
     SCC iter.                  ...        0 min,  0.017 sec
     gradient                   ...        0 min,  0.007 sec
 * total energy  :   -32.3003404 Eh     change       -0.1483650E-03 Eh
   gradient norm :     0.0056746 Eh/α   predicted    -0.1268306E-03 ( -14.51%)
   displ. norm   :     0.1514641 α      lambda       -0.1232423E-03
   maximum displ.:     0.0717060 α      in ANC's #3, #1, #40, ...

........................................................................
.............................. CYCLE   40 ..............................
........................................................................
   1    -32.7737075 -0.327737E+02  0.547E-02    2.72       0.0  T
   2    -32.7737079 -0.412917E-06  0.325E-02    2.72       1.0  T
   3    -32.7737071  0.832257E-06  0.919E-03    2.72       2.4  T
   4    -32.7737081 -0.102161E-05  0.400E-03    2.72       5.5  T
   5    -32.7737081  0.149107E-07  0.204E-03    2.72      10.7  T
   6    -32.7737082 -0.365147E-07  0.384E-04    2.72      56.8  T
   7    -32.7737082 -0.966082E-09  0.119E-04    2.72     182.6  T
     SCC iter.                  ...        0 min,  0.015 sec
     gradient                   ...        0 min,  0.007 sec
 * total energy  :   -32.3004334 Eh     change       -0.9305291E-04 Eh
   gradient norm :     0.0060069 Eh/α   predicted    -0.6303934E-04 ( -32.25%)
   displ. norm   :     0.2649106 α      lambda       -0.2349893E-03
   maximum displ.:     0.1551853 α      in ANC's #4, #2, #3, ...

........................................................................
.............................. CYCLE   41 ..............................
........................................................................
   1    -32.7734373 -0.327734E+02  0.130E-01    2.75       0.0  T
   2    -32.7734383 -0.100745E-05  0.768E-02    2.75       1.0  T
   3    -32.7734344  0.387236E-05  0.183E-02    2.75       1.2  T
   4    -32.7734391 -0.471266E-05  0.496E-03    2.75       4.4  T
   5    -32.7734391  0.245651E-07  0.208E-03    2.75      10.5  T
   6    -32.7734392 -0.518422E-07  0.364E-04    2.75      59.9  T
   7    -32.7734392 -0.475815E-09  0.202E-04    2.75     108.2  T
     SCC iter.                  ...        0 min,  0.015 sec
     gradient                   ...        0 min,  0.007 sec
 * total energy  :   -32.3005690 Eh     change       -0.1355887E-03 Eh
   gradient norm :     0.0047355 Eh/α   predicted    -0.1257416E-03 (  -7.26%)
   displ. norm   :     0.1706381 α      lambda       -0.1114249E-03
   maximum displ.:     0.0928182 α      in ANC's #3, #2, #1, ...

........................................................................
.............................. CYCLE   42 ..............................
........................................................................
   1    -32.7718903 -0.327719E+02  0.766E-02    2.73       0.0  T
   2    -32.7718907 -0.427444E-06  0.455E-02    2.73       1.0  T
   3    -32.7718896  0.115277E-05  0.107E-02    2.72       2.0  T
   4    -32.7718910 -0.140000E-05  0.327E-03    2.72       6.7  T
   5    -32.7718910 -0.202254E-07  0.126E-03    2.72      17.4  T
   6    -32.7718910 -0.158362E-08  0.463E-04    2.72      47.1  T
   7    -32.7718910 -0.272273E-08  0.101E-04    2.72     215.1  T
     SCC iter.                  ...        0 min,  0.015 sec
     gradient                   ...        0 min,  0.007 sec
 * total energy  :   -32.3006339 Eh     change       -0.6493642E-04 Eh
   gradient norm :     0.0039961 Eh/α   predicted    -0.5733892E-04 ( -11.70%)
   displ. norm   :     0.0851456 α      lambda       -0.8059770E-04
   maximum displ.:     0.0636125 α      in ANC's #2, #5, #7, ...
 * RMSD in coord.:     0.7796283 α      energy gain  -0.1649263E-01 Eh

generating ANC from model Hessian ...
Using Lindh-Hessian (1995)
 Shifting diagonal of input Hessian by   8.923160154638378E-003
 Lowest  eigenvalues of input Hessian
    0.000000    0.000000    0.000000    0.000000    0.000000    0.000000
    0.010000    0.010454    0.011837    0.013776    0.014453    0.014847
    0.019795    0.022835    0.025844    0.028935    0.034078    0.037239
 Highest eigenvalues
    1.738400    1.806881    1.892283    2.035432    2.076128    2.130133
 

........................................................................
.............................. CYCLE   43 ..............................
........................................................................
   1    -32.7724215 -0.327724E+02  0.586E-02    2.73       0.0  T
   2    -32.7724218 -0.306293E-06  0.350E-02    2.73       1.0  T
   3    -32.7724194  0.239669E-05  0.140E-02    2.73       1.6  T
   4    -32.7724221 -0.271712E-05  0.193E-03    2.73      11.3  T
   5    -32.7724221 -0.117979E-07  0.104E-03    2.73      20.9  T
   6    -32.7724221 -0.629470E-08  0.275E-04    2.73      79.5  T
   7    -32.7724221 -0.442640E-09  0.603E-05    2.73     362.0  T
     SCC iter.                  ...        0 min,  0.015 sec
     gradient                   ...        0 min,  0.007 sec
 * total energy  :   -32.3006905 Eh     change       -0.5657370E-04 Eh
   gradient norm :     0.0030875 Eh/α   predicted     0.0000000E+00 (-100.00%)
   displ. norm   :     0.0512080 α      lambda       -0.4255705E-04
   maximum displ.:     0.0340877 α      in ANC's #3, #1, #4, ...

........................................................................
.............................. CYCLE   44 ..............................
........................................................................
   1    -32.7729328 -0.327729E+02  0.281E-02    2.74       0.0  T
   2    -32.7729329 -0.735583E-07  0.171E-02    2.74       1.3  T
   3    -32.7729323  0.604691E-06  0.645E-03    2.74       3.4  T
   4    -32.7729329 -0.683594E-06  0.773E-04    2.74      28.2  T
   5    -32.7729329 -0.201319E-08  0.480E-04    2.74      45.5  T
     SCC iter.                  ...        0 min,  0.011 sec
     gradient                   ...        0 min,  0.007 sec
 * total energy  :   -32.3007268 Eh     change       -0.3624108E-04 Eh
   gradient norm :     0.0013852 Eh/α   predicted    -0.2317098E-04 ( -36.06%)
   displ. norm   :     0.1578085 α      lambda       -0.5935030E-04
   maximum displ.:     0.1091766 α      in ANC's #3, #1, #6, ...

........................................................................
.............................. CYCLE   45 ..............................
........................................................................
   1    -32.7735239 -0.327735E+02  0.761E-02    2.74       0.0  T
   2    -32.7735242 -0.326525E-06  0.461E-02    2.74       1.0  T
   3    -32.7735219  0.231560E-05  0.126E-02    2.74       1.7  T
   4    -32.7735246 -0.264508E-05  0.209E-03    2.74      10.4  T
   5    -32.7735246 -0.386545E-08  0.122E-03    2.74      17.9  T
   6    -32.7735246 -0.473027E-08  0.324E-04    2.74      67.4  T
   7    -32.7735246 -0.829580E-09  0.897E-05    2.74     243.4  T
     SCC iter.                  ...        0 min,  0.015 sec
     gradient                   ...        0 min,  0.007 sec
 * total energy  :   -32.3007827 Eh     change       -0.5590520E-04 Eh
   gradient norm :     0.0029750 Eh/α   predicted    -0.3000368E-04 ( -46.33%)
   displ. norm   :     0.0844874 α      lambda       -0.3787598E-04
   maximum displ.:     0.0567777 α      in ANC's #3, #1, #6, ...

........................................................................
.............................. CYCLE   46 ..............................
........................................................................
   1    -32.7733864 -0.327734E+02  0.352E-02    2.74       0.0  T
   2    -32.7733865 -0.948182E-07  0.212E-02    2.74       1.0  T
   3    -32.7733859  0.619681E-06  0.682E-03    2.74       3.2  T
   4    -32.7733866 -0.712401E-06  0.133E-03    2.74      16.5  T
   5    -32.7733866 -0.440153E-09  0.648E-04    2.74      33.7  T
   6    -32.7733866 -0.108342E-08  0.135E-04    2.74     161.2  T
     SCC iter.                  ...        0 min,  0.013 sec
     gradient                   ...        0 min,  0.007 sec
 * total energy  :   -32.3008185 Eh     change       -0.3579532E-04 Eh
   gradient norm :     0.0027872 Eh/α   predicted    -0.1907778E-04 ( -46.70%)
   displ. norm   :     0.2209528 α      lambda       -0.1038399E-03
   maximum displ.:     0.1461647 α      in ANC's #1, #3, #6, ...

........................................................................
.............................. CYCLE   47 ..............................
........................................................................
   1    -32.7727772 -0.327728E+02  0.924E-02    2.74       0.0  T
   2    -32.7727780 -0.795586E-06  0.554E-02    2.73       1.0  T
   3    -32.7727718  0.619326E-05  0.214E-02    2.74       1.0  T
   4    -32.7727789 -0.708972E-05  0.354E-03    2.73       6.2  T
   5    -32.7727789 -0.684930E-08  0.188E-03    2.73      11.6  T
   6    -32.7727789 -0.647229E-08  0.416E-04    2.73      52.4  T
   7    -32.7727789 -0.286663E-08  0.924E-05    2.73     236.2  T
     SCC iter.                  ...        0 min,  0.015 sec
     gradient                   ...        0 min,  0.007 sec
 * total energy  :   -32.3009088 Eh     change       -0.9035200E-04 Eh
   gradient norm :     0.0021154 Eh/α   predicted    -0.5445519E-04 ( -39.73%)
   displ. norm   :     0.4008651 α      lambda       -0.1537626E-03
   maximum displ.:     0.2727153 α      in ANC's #1, #3, #6, ...

........................................................................
.............................. CYCLE   48 ..............................
........................................................................
   1    -32.7709380 -0.327709E+02  0.172E-01    2.73       0.0  T
   2    -32.7709403 -0.228087E-05  0.103E-01    2.72       1.0  T
   3    -32.7709290  0.112087E-04  0.286E-02    2.72       1.0  T
   4    -32.7709420 -0.129854E-04  0.641E-03    2.72       3.4  T
   5    -32.7709421 -0.298990E-07  0.334E-03    2.72       6.5  T
   6    -32.7709421 -0.319985E-07  0.685E-04    2.72      31.8  T
   7    -32.7709421 -0.730569E-08  0.211E-04    2.72     103.4  T
     SCC iter.                  ...        0 min,  0.015 sec
     gradient                   ...        0 min,  0.007 sec
 * total energy  :   -32.3010259 Eh     change       -0.1170818E-03 Eh
   gradient norm :     0.0045844 Eh/α   predicted    -0.8923608E-04 ( -23.78%)
   displ. norm   :     0.2415880 α      lambda       -0.8997686E-04
   maximum displ.:     0.1693025 α      in ANC's #1, #3, #6, ...

........................................................................
.............................. CYCLE   49 ..............................
........................................................................
   1    -32.7707517 -0.327708E+02  0.106E-01    2.71       0.0  T
   2    -32.7707526 -0.905747E-06  0.632E-02    2.71       1.0  T
   3    -32.7707431  0.947606E-05  0.261E-02    2.71       1.0  T
   4    -32.7707539 -0.107973E-04  0.371E-03    2.71       5.9  T
   5    -32.7707539 -0.362193E-08  0.188E-03    2.71      11.6  T
   6    -32.7707539 -0.650147E-08  0.457E-04    2.71      47.7  T
   7    -32.7707539 -0.323106E-08  0.108E-04    2.71     202.0  T
     SCC iter.                  ...        0 min,  0.015 sec
     gradient                   ...        0 min,  0.007 sec
 * total energy  :   -32.3010949 Eh     change       -0.6902469E-04 Eh
   gradient norm :     0.0052698 Eh/α   predicted    -0.4761740E-04 ( -31.01%)
   displ. norm   :     0.1668587 α      lambda       -0.1139339E-03
   maximum displ.:     0.1242065 α      in ANC's #1, #3, #4, ...

........................................................................
.............................. CYCLE   50 ..............................
........................................................................
   1    -32.7728776 -0.327729E+02  0.788E-02    2.71       0.0  T
   2    -32.7728788 -0.114749E-05  0.478E-02    2.71       1.0  T
   3    -32.7728697  0.910834E-05  0.299E-02    2.72       1.0  T
   4    -32.7728814 -0.117061E-04  0.270E-03    2.71       8.1  T
   5    -32.7728814 -0.888357E-08  0.172E-03    2.71      12.7  T
   6    -32.7728814 -0.208790E-08  0.791E-04    2.71      27.6  T
   7    -32.7728814 -0.265431E-08  0.154E-04    2.71     141.6  T
     SCC iter.                  ...        0 min,  0.015 sec
     gradient                   ...        0 min,  0.006 sec
 * total energy  :   -32.3011755 Eh     change       -0.8059077E-04 Eh
   gradient norm :     0.0037279 Eh/α   predicted    -0.5855403E-04 ( -27.34%)
   displ. norm   :     0.1471088 α      lambda       -0.7433801E-04
   maximum displ.:     0.1133739 α      in ANC's #1, #3, #4, ...

........................................................................
.............................. CYCLE   51 ..............................
........................................................................
   1    -32.7741585 -0.327742E+02  0.677E-02    2.72       0.0  T
   2    -32.7741588 -0.377604E-06  0.399E-02    2.72       1.0  T
   3    -32.7741555  0.334269E-05  0.157E-02    2.73       1.4  T
   4    -32.7741593 -0.383060E-05  0.189E-03    2.72      11.5  T
   5    -32.7741593 -0.520240E-08  0.110E-03    2.72      19.9  T
   6    -32.7741593 -0.972079E-09  0.449E-04    2.72      48.6  T
   7    -32.7741593 -0.131324E-08  0.971E-05    2.72     224.7  T
     SCC iter.                  ...        0 min,  0.015 sec
     gradient                   ...        0 min,  0.007 sec
 * total energy  :   -32.3012297 Eh     change       -0.5423120E-04 Eh
   gradient norm :     0.0024587 Eh/α   predicted    -0.3797558E-04 ( -29.97%)
   displ. norm   :     0.1607644 α      lambda       -0.4498651E-04
   maximum displ.:     0.1285989 α      in ANC's #1, #3, #4, ...

........................................................................
.............................. CYCLE   52 ..............................
........................................................................
   1    -32.7743484 -0.327743E+02  0.662E-02    2.73       0.0  T
   2    -32.7743486 -0.180658E-06  0.394E-02    2.74       1.0  T
   3    -32.7743483  0.222501E-06  0.499E-03    2.73       4.4  T
   4    -32.7743487 -0.335103E-06  0.194E-03    2.74      11.3  T
   5    -32.7743487 -0.252060E-08  0.664E-04    2.74      32.8  T
   6    -32.7743487 -0.246914E-08  0.184E-04    2.74     118.9  T
     SCC iter.                  ...        0 min,  0.013 sec
     gradient                   ...        0 min,  0.007 sec
 * total energy  :   -32.3012631 Eh     change       -0.3334229E-04 Eh
   gradient norm :     0.0012525 Eh/α   predicted    -0.2307871E-04 ( -30.78%)
   displ. norm   :     0.2067485 α      lambda       -0.2711122E-04
   maximum displ.:     0.1732119 α      in ANC's #1, #3, #4, ...

........................................................................
.............................. CYCLE   53 ..............................
........................................................................
   1    -32.7742802 -0.327743E+02  0.811E-02    2.74       0.0  T
   2    -32.7742804 -0.276758E-06  0.485E-02    2.74       1.0  T
   3    -32.7742802  0.228221E-06  0.567E-03    2.74       3.9  T
   4    -32.7742806 -0.387693E-06  0.252E-03    2.74       8.7  T
   5    -32.7742806 -0.591361E-08  0.925E-04    2.74      23.6  T
   6    -32.7742806 -0.539264E-08  0.295E-04    2.74      74.0  T
     SCC iter.                  ...        0 min,  0.013 sec
     gradient                   ...        0 min,  0.007 sec
 * total energy  :   -32.3012963 Eh     change       -0.3326357E-04 Eh
   gradient norm :     0.0019981 Eh/α   predicted    -0.1381463E-04 ( -58.47%)
   displ. norm   :     0.1202254 α      lambda       -0.1742680E-04
   maximum displ.:     0.1061123 α      in ANC's #1, #3, #4, ...

........................................................................
.............................. CYCLE   54 ..............................
........................................................................
   1    -32.7744798 -0.327745E+02  0.465E-02    2.74       0.0  T
   2    -32.7744799 -0.121038E-06  0.280E-02    2.74       1.0  T
   3    -32.7744788  0.113751E-05  0.894E-03    2.74       2.4  T
   4    -32.7744801 -0.129614E-05  0.150E-03    2.74      14.6  T
   5    -32.7744801  0.221922E-08  0.759E-04    2.74      28.8  T
   6    -32.7744801 -0.426825E-08  0.964E-05    2.74     226.4  T
     SCC iter.                  ...        0 min,  0.013 sec
     gradient                   ...        0 min,  0.007 sec
 * total energy  :   -32.3013192 Eh     change       -0.2290409E-04 Eh
   gradient norm :     0.0017121 Eh/α   predicted    -0.8769929E-05 ( -61.71%)
   displ. norm   :     0.0982657 α      lambda       -0.1492428E-04
   maximum displ.:     0.0875786 α      in ANC's #1, #3, #29, ...

........................................................................
.............................. CYCLE   55 ..............................
........................................................................
   1    -32.7744459 -0.327744E+02  0.384E-02    2.73       0.0  T
   2    -32.7744461 -0.201342E-06  0.231E-02    2.73       1.0  T
   3    -32.7744442  0.184220E-05  0.121E-02    2.73       1.8  T
   4    -32.7744464 -0.217834E-05  0.134E-03    2.73      16.3  T
   5    -32.7744464 -0.168050E-08  0.766E-04    2.73      28.5  T
   6    -32.7744464 -0.139764E-10  0.257E-04    2.73      84.8  T
     SCC iter.                  ...        0 min,  0.013 sec
     gradient                   ...        0 min,  0.007 sec
 * total energy  :   -32.3013385 Eh     change       -0.1929552E-04 Eh
   gradient norm :     0.0009670 Eh/α   predicted    -0.7495203E-05 ( -61.16%)
   displ. norm   :     0.1391230 α      lambda       -0.1858683E-04
   maximum displ.:     0.1240638 α      in ANC's #1, #3, #5, ...

........................................................................
.............................. CYCLE   56 ..............................
........................................................................
   1    -32.7748442 -0.327748E+02  0.519E-02    2.73       0.0  T
   2    -32.7748444 -0.221002E-06  0.312E-02    2.73       1.0  T
   3    -32.7748419  0.246698E-05  0.133E-02    2.73       1.6  T
   4    -32.7748448 -0.283126E-05  0.195E-03    2.73      11.2  T
   5    -32.7748448  0.281524E-08  0.828E-04    2.73      26.4  T
   6    -32.7748448 -0.431076E-08  0.161E-04    2.73     135.4  T
     SCC iter.                  ...        0 min,  0.013 sec
     gradient                   ...        0 min,  0.006 sec
 * total energy  :   -32.3013583 Eh     change       -0.1972470E-04 Eh
   gradient norm :     0.0010834 Eh/α   predicted    -0.9373893E-05 ( -52.48%)
   displ. norm   :     0.1244292 α      lambda       -0.1141719E-04
   maximum displ.:     0.1071585 α      in ANC's #1, #3, #2, ...

........................................................................
.............................. CYCLE   57 ..............................
........................................................................
   1    -32.7742863 -0.327743E+02  0.520E-02    2.73       0.0  T
   2    -32.7742867 -0.415832E-06  0.308E-02    2.72       1.0  T
   3    -32.7742843  0.238511E-05  0.134E-02    2.72       1.6  T
   4    -32.7742871 -0.276607E-05  0.172E-03    2.72      12.7  T
   5    -32.7742871 -0.104367E-07  0.978E-04    2.72      22.3  T
   6    -32.7742871  0.286036E-09  0.234E-04    2.72      93.4  T
     SCC iter.                  ...        0 min,  0.014 sec
     gradient                   ...        0 min,  0.007 sec
 * total energy  :   -32.3013674 Eh     change       -0.9153044E-05 Eh
   gradient norm :     0.0013848 Eh/α   predicted    -0.5748211E-05 ( -37.20%)
   displ. norm   :     0.0787099 α      lambda       -0.4926117E-05
   maximum displ.:     0.0688835 α      in ANC's #1, #3, #2, ...

........................................................................
[...]

   *** GEOMETRY OPTIMIZATION CONVERGED AFTER 60 ITERATIONS ***

------------------------------------------------------------------------
 total energy gain   :        -0.0735624 Eh      -46.1611 kcal/mol
 total RMSD          :         1.6700012 a0        0.8837 Å
 total power (kW/mol):        -3.2189665 (step) -108.4771 (real)
------------------------------------------------------------------------

 ANCopt (total)                0 d,  0 h,  0 min,  1.781 sec
 optimizer setup                ...        0 min,  0.001 sec (  0.046%)
 model hessian                  ...        0 min,  0.029 sec (  1.606%)
 ANC generation                 ...        0 min,  0.005 sec (  0.257%)
 coordinate transformation      ...        0 min,  0.002 sec (  0.088%)
 single point calculation       ...        0 min,  1.666 sec ( 93.560%)
 optimization log               ...        0 min,  0.055 sec (  3.079%)
 hessian update                 ...        0 min,  0.002 sec (  0.116%)
 rational function              ...        0 min,  0.018 sec (  1.024%)

================
 final structure:
================
21
 xtb: 6.4.1 (afa7bdf)
C        -2.69567634634206    1.41897523081955   -0.05984102051493
C        -2.89414867121397    0.05050949267176    0.07611587562425
C        -1.79386091403176   -0.78421216308561    0.20788436854003
C        -0.50928594276036   -0.28053538699702    0.20440527589661
C        -0.29713582934760    1.09147692659901    0.06205795990778
C        -1.39802539170615    1.92467434378225   -0.06459996895639
H        -1.25534148987242    2.99070426696624   -0.18283618998207
H        -3.88489546979330   -0.37505352044288    0.08466396708163
H        -1.95381743605293   -1.84666081202244    0.32076901592965
H         0.33275457821490   -0.94326523689147    0.32654873290731
O        -3.69234447860876    2.34683363161921   -0.19232861416834
C        -5.03324394598759    1.90323694008098   -0.18343513678651
H        -5.23374097668982    1.22148199993325   -1.01536512674912
H        -5.63614041621340    2.80238366834809   -0.29782163156879
H        -5.28405144222628    1.41269370239718    0.76203722443230
C         1.06965738290206    1.67430745368056    0.06080432627813
C         2.09522495283738    1.00992445093128   -0.48647209486190
H         3.08420214491062    1.43660533635746   -0.49994099624516
Li        1.30340292145328    4.32537152704249    1.22454547141414
H         1.96146573052738    0.05436349451452   -0.95668762262677
O         1.19790878350139    2.87643355129486    0.60949634714811
 
 Bond Distances (Angstroems)
 ---------------------------
C1-C2=1.3895         C1-C6=1.3927         C1-O11=1.3681        C2-C1=1.3895         C2-C3=1.3874         C2-H8=1.0783         
C3-C2=1.3874         C3-C4=1.3798         C3-H9=1.0803         C4-C3=1.3798         C4-C5=1.3956         C4-H10=1.0785        
C5-C4=1.3956         C5-C6=1.3864         C5-C16=1.4859        C6-C1=1.3927         C6-C5=1.3864         C6-H7=1.0820         
H7-C6=1.0820         H8-C2=1.0783         H9-C3=1.0803         H10-C4=1.0785        O11-C1=1.3681        O11-C12=1.4124       
C12-O11=1.4124       C12-H13=1.0941       C12-H14=1.0886       C12-H15=1.0943       H13-C12=1.0941       H14-C12=1.0886       
H15-C12=1.0943       C16-C5=1.4859        C16-C17=1.3389       C16-O21=1.3276       C17-C16=1.3389       C17-H18=1.0772       
C17-H20=1.0734       H18-C17=1.0772       Li19-O21=1.5776      H20-C17=1.0734       O21-C16=1.3276       O21-Li19=1.5776      
 C  H  Rav=1.0830 sigma=0.0071  Rmin=1.0734  Rmax=1.0943     9
 C  C  Rav=1.3945 sigma=0.0384  Rmin=1.3389  Rmax=1.4859     8
 O  Li Rav=1.5776 sigma=0.0000  Rmin=1.5776  Rmax=1.5776     1
 O  C  Rav=1.3694 sigma=0.0346  Rmin=1.3276  Rmax=1.4124     3
 
 selected bond angles (degree)
 --------------------
C6-C1-C2=119.41                O11-C1-C2=124.98               O11-C1-C6=115.61               C3-C2-C1=119.25                
H8-C2-C1=121.38                H8-C2-C3=119.37                C4-C3-C2=121.23                H9-C3-C2=118.96                
H9-C3-C4=119.81                C5-C4-C3=120.04                H10-C4-C3=120.15               H10-C4-C5=119.80               
C6-C5-C4=118.65                C16-C5-C4=121.70               C16-C5-C6=119.64               C5-C6-C1=121.42                
H7-C6-C1=118.75                H7-C6-C5=119.83                
 
 selected dihedral angles (degree)
 ---------------------------------
C3-C2-C1-C6=  0.16            C3-C2-C1-O11=180.25           H8-C2-C1-C6=179.95            H8-C2-C1-O11=  0.04           
C4-C3-C2-C1=359.91            C4-C3-C2-H8=180.12            H9-C3-C2-C1=179.54            H9-C3-C2-H8=359.75            
C5-C4-C3-C2=359.78            C5-C4-C3-H9=180.15            H10-C4-C3-C2=178.85           H10-C4-C3-H9=359.22           
C6-C5-C4-C3=  0.44            C6-C5-C4-H10=181.37           C16-C5-C4-C3=179.66           C16-C5-C4-H10=  0.58          
C5-C6-C1-C2=  0.07            C5-C6-C1-O11=179.99           H7-C6-C1-C2=179.29            H7-C6-C1-O11=359.21           
C1-C6-C5-C4=359.62            C1-C6-C5-C16=180.39           H7-C6-C5-C4=180.42            H7-C6-C5-C16=  1.19           
           -------------------------------------------------
          |                Final Singlepoint                |
           -------------------------------------------------

          ...................................................
          :                      SETUP                      :
          :.................................................:
          :  # basis functions                  57          :
          :  # atomic orbitals                  57          :
          :  # shells                           33          :
          :  # electrons                        58          :
          :  max. iterations                   250          :
          :  Hamiltonian                  GFN2-xTB          :
          :  restarted?                      false          :
          :  GBSA solvation                   true          :
          :  PC potential                    false          :
          :  electronic temp.          300.0000000     K    :
          :  accuracy                    1.0000000          :
          :  -> integral cutoff          0.2500000E+02      :
          :  -> integral neglect         0.1000000E-07      :
          :  -> SCF convergence          0.1000000E-05 Eh   :
          :  -> wf. convergence          0.1000000E-03 e    :
          :  Broyden damping             0.4000000          :
          ...................................................

 iter      E             dE          RMSdq      gap      omega  full diag
   1    -32.7746516 -0.327747E+02  0.281E-05    2.72       0.0  T
   2    -32.7746516 -0.196110E-11  0.166E-05    2.72    1315.3  T
   3    -32.7746516 -0.589750E-12  0.106E-05    2.72    2062.3  T

   *** convergence criteria satisfied after 3 iterations ***

         #    Occupation            Energy/Eh            Energy/eV
      -------------------------------------------------------------
         1        2.0000           -0.7098219             -19.3152
       ...           ...                  ...                  ...
        23        2.0000           -0.4333928             -11.7932
        24        2.0000           -0.4264255             -11.6036
        25        2.0000           -0.4127040             -11.2302
        26        2.0000           -0.3942542             -10.7282
        27        2.0000           -0.3732909             -10.1578
        28        2.0000           -0.3718465             -10.1185
        29        2.0000           -0.3380007              -9.1975 (HOMO)
        30                         -0.2380137              -6.4767 (LUMO)
        31                         -0.2229515              -6.0668
        32                         -0.2068493              -5.6287
        33                         -0.1455595              -3.9609
        34                         -0.0720056              -1.9594
       ...                                ...                  ...
        57                          0.6864546              18.6794
      -------------------------------------------------------------
                  HL-Gap            0.0999870 Eh            2.7208 eV
             Fermi-level           -0.2880072 Eh           -7.8371 eV

 SCC (total)                   0 d,  0 h,  0 min,  0.025 sec
 SCC setup                      ...        0 min,  0.001 sec (  4.416%)
 Dispersion                     ...        0 min,  0.000 sec (  1.813%)
 classical contributions        ...        0 min,  0.000 sec (  0.183%)
 integral evaluation            ...        0 min,  0.003 sec ( 14.104%)
 iterations                     ...        0 min,  0.012 sec ( 47.593%)
 molecular gradient             ...        0 min,  0.007 sec ( 30.547%)
 printout                       ...        0 min,  0.000 sec (  1.112%)

         :::::::::::::::::::::::::::::::::::::::::::::::::::::
         ::                     SUMMARY                     ::
         :::::::::::::::::::::::::::::::::::::::::::::::::::::
         :: total energy             -32.301377521397 Eh    ::
         :: total w/o Gsasa/hb       -32.276920440565 Eh    ::
         :: gradient norm              0.000680546548 Eh/a0 ::
         :: HOMO-LUMO gap              2.720785987178 eV    ::
         ::.................................................::
         :: SCC energy               -32.774651632505 Eh    ::
         :: -> isotropic ES            0.101606009906 Eh    ::
         :: -> anisotropic ES          0.011005059928 Eh    ::
         :: -> anisotropic XC          0.008935480719 Eh    ::
         :: -> dispersion             -0.018210360793 Eh    ::
         :: -> Gsolv                  -0.033837188289 Eh    ::
         ::    -> Gelec               -0.009380107457 Eh    ::
         ::    -> Gsasa               -0.029222944198 Eh    ::
         ::    -> Ghb                 -0.000558952078 Eh    ::
         ::    -> Gshift               0.005324815444 Eh    ::
         :: repulsion energy           0.473271594251 Eh    ::
         :: add. restraining           0.000000000000 Eh    ::
         :: total charge              -0.000000000000 e     ::
         :::::::::::::::::::::::::::::::::::::::::::::::::::::

           -------------------------------------------------
          |                Property Printout                |
           -------------------------------------------------

    * Orbital Energies and Occupations

         #    Occupation            Energy/Eh            Energy/eV
      -------------------------------------------------------------
         1        2.0000           -0.7098219             -19.3152
       ...           ...                  ...                  ...
        17        2.0000           -0.4798869             -13.0584
        18        2.0000           -0.4725712             -12.8593
        19        2.0000           -0.4668620             -12.7040
        20        2.0000           -0.4605023             -12.5309
        21        2.0000           -0.4544650             -12.3666
        22        2.0000           -0.4379168             -11.9163
        23        2.0000           -0.4333928             -11.7932
        24        2.0000           -0.4264255             -11.6036
        25        2.0000           -0.4127040             -11.2302
        26        2.0000           -0.3942542             -10.7282
        27        2.0000           -0.3732909             -10.1578
        28        2.0000           -0.3718465             -10.1185
        29        2.0000           -0.3380007              -9.1975 (HOMO)
        30                         -0.2380137              -6.4767 (LUMO)
        31                         -0.2229515              -6.0668
        32                         -0.2068493              -5.6287
        33                         -0.1455595              -3.9609
        34                         -0.0720056              -1.9594
        35                         -0.0521499              -1.4191
        36                         -0.0478971              -1.3033
        37                          0.0324193               0.8822
        38                          0.0960520               2.6137
        39                          0.1187010               3.2300
        40                          0.1329162               3.6168
       ...                                ...                  ...
        57                          0.6864546              18.6794
      -------------------------------------------------------------
                  HL-Gap            0.0999870 Eh            2.7208 eV
             Fermi-level           -0.2880072 Eh           -7.8371 eV

     #   Z          covCN         q      C6AA      α(0)
     1   6 C        2.862     0.136    25.018     8.199
     2   6 C        2.917    -0.074    29.858     8.961
     3   6 C        2.920    -0.038    28.942     8.822
     4   6 C        2.922    -0.052    29.279     8.874
     5   6 C        2.974    -0.007    28.200     8.711
     6   6 C        2.927    -0.061    29.509     8.909
     7   1 H        0.925     0.048     2.345     2.395
     8   1 H        0.926     0.041     2.441     2.443
     9   1 H        0.926     0.040     2.443     2.444
    10   1 H        0.926     0.038     2.477     2.461
    11   8 O        1.705    -0.295    18.903     5.870
    12   6 C        3.641     0.025    20.511     6.512
    13   1 H        0.924     0.048     2.345     2.395
    14   1 H        0.925     0.074     2.045     2.236
    15   1 H        0.924     0.048     2.343     2.394
    16   6 C        2.903     0.153    24.693     8.148
    17   6 C        2.842    -0.165    32.269     9.310
    18   1 H        0.926     0.019     2.753     2.595
    19   3 Li       0.744     0.615    42.151    21.055
    20   1 H        0.926     0.018     2.759     2.597
    21   8 O        1.519    -0.611    25.546     6.817

 Mol. C6AA /au·bohr⁶  :       5662.339432
 Mol. C8AA /au·bohr⁸  :     149391.475888
 Mol. α(0) /au        :        132.146060


Wiberg/Mayer (AO) data.
largest (>0.10) Wiberg bond orders for each atom

 ---------------------------------------------------------------------------
     #   Z sym  total        # sym  WBO       # sym  WBO       # sym  WBO
 ---------------------------------------------------------------------------
     1   6 C    3.934 --     2 C    1.378     6 C    1.361    11 O    1.049
     2   6 C    3.985 --     3 C    1.422     1 C    1.378     8 H    0.966
     3   6 C    3.991 --     4 C    1.465     2 C    1.422     9 H    0.970
                             6 C    0.104
     4   6 C    3.990 --     3 C    1.465     5 C    1.367    10 H    0.968
     5   6 C    3.986 --     6 C    1.422     4 C    1.367    16 C    1.014
     6   6 C    3.988 --     5 C    1.422     1 C    1.361     7 H    0.951
                             3 C    0.104
     7   1 H    0.998 --     6 C    0.951
     8   1 H    0.998 --     2 C    0.966
     9   1 H    0.998 --     3 C    0.970
    10   1 H    0.998 --     4 C    0.968
    11   8 O    2.206 --     1 C    1.049    12 C    0.979
    12   6 C    3.939 --    11 O    0.979    14 H    0.978    13 H    0.977
                            15 H    0.977
    13   1 H    0.998 --    12 C    0.977
    14   1 H    0.994 --    12 C    0.978
    15   1 H    0.998 --    12 C    0.977
    16   6 C    3.952 --    17 C    1.745    21 O    1.146     5 C    1.014
    17   6 C    3.960 --    16 C    1.745    20 H    0.978    18 H    0.973
                            21 O    0.145
    18   1 H    0.999 --    17 C    0.973
    19   3 Li   0.715 --    21 O    0.631
    20   1 H    1.000 --    17 C    0.978
    21   8 O    1.980 --    16 C    1.146    19 Li   0.631    17 C    0.145
 ---------------------------------------------------------------------------

Topologies differ in total number of bonds
Writing topology from bond orders to xtbtopo.mol

molecular dipole:
                 x           y           z       tot (Debye)
 q only:       -0.435       1.580       0.856
   full:       -0.458       1.912       1.035       5.648
molecular quadrupole (traceless):
                xx          xy          yy          xz          yz          zz
 q only:       -4.430       7.865      17.826       3.632      12.142     -13.396
  q+dip:       -6.138      10.966      24.883       4.123      15.947     -18.745
   full:       -7.300      10.912      23.568       4.285      15.894     -16.268

           -------------------------------------------------
          |                Geometry Summary                 |
           -------------------------------------------------

      molecular mass/u    :      156.1069363
   center of mass at/Å    :       -1.1945415       1.3873858       0.0736910
  moments of inertia/u·Å² :        0.2728320E+03   0.8050613E+03   0.1038972E+04
rotational constants/cm⁻¹ :        0.6178760E-01   0.2093956E-01   0.1622530E-01

 * 20 selected distances

     #   Z          #   Z                                           value/Å
     1   6 C        2   6 C                                       1.3894510
     2   6 C        3   6 C                                       1.3873559
     3   6 C        4   6 C                                       1.3797954
     4   6 C        5   6 C                                       1.3955960
     1   6 C        6   6 C                                       1.3927140
     5   6 C        6   6 C                                       1.3864408
     6   6 C        7   1 H                                       1.0820158
     2   6 C        8   1 H                                       1.0783117
     3   6 C        9   1 H                                       1.0803361
     4   6 C       10   1 H                                       1.0784999
     1   6 C       11   8 O                                       1.3681453
    11   8 O       12   6 C                                       1.4123981
    12   6 C       13   1 H                                       1.0941190
    12   6 C       14   1 H                                       1.0885923
    12   6 C       15   1 H                                       1.0942829
    16   6 C       17   6 C                                       1.3389194
    17   6 C       18   1 H                                       1.0771787
    17   6 C       20   1 H                                       1.0733550 (min)
    16   6 C       21   8 O                                       1.3276364
    19   3 Li      21   8 O                                       1.5776044 (max)

 * 4 distinct bonds (by element types)

   Z      Z             #   av. dist./Å        max./Å        min./Å
   1 H    6 C           9     1.0829657     1.0942829     1.0733550
   6 C    6 C           7     1.3814675     1.3955960     1.3389194
   3 Li   8 O           1     1.5776044     1.5776044     1.5776044
   6 C    8 O           3     1.3693933     1.4123981     1.3276364


optimized geometry written to: xtbopt.xyz


           -------------------------------------------------
          | TOTAL ENERGY              -32.301377521397 Eh   |
          | GRADIENT NORM               0.000680546548 Eh/α |
          | HOMO-LUMO GAP               2.720785987178 eV   |
           -------------------------------------------------

------------------------------------------------------------------------
 * finished run on 2022/03/02 at 09:59:57.038     
------------------------------------------------------------------------
 total:
 * wall-time:     0 d,  0 h,  0 min,  2.643 sec
 *  cpu-time:     0 d,  0 h,  0 min,  8.585 sec
 * ratio c/w:     3.248 speedup
 SCF:
 * wall-time:     0 d,  0 h,  0 min,  0.037 sec
 *  cpu-time:     0 d,  0 h,  0 min,  0.146 sec
 * ratio c/w:     3.994 speedup
 ANC optimizer:
 * wall-time:     0 d,  0 h,  0 min,  2.020 sec
 *  cpu-time:     0 d,  0 h,  0 min,  7.813 sec
 * ratio c/w:     3.869 speedup

