21
 energy: -32.227815145488 gnorm: 0.069598245594 xtb: 6.4.1 (afa7bdf)
C        -2.85761767590000    1.44822191240000    0.00661395750000
C        -2.88984955480000    0.04060096190000   -0.00941614550000
C        -1.70002983050000   -0.68847971670000   -0.01951743850000
C        -0.46903770770000   -0.02946884020000   -0.01397485710000
C        -0.41137831150000    1.37704712650000    0.00197734500000
C        -1.61883893690000    2.10272973250000    0.01228364420000
H        -1.60499564990000    3.18596200750000    0.02458627110000
H        -3.82709319390000   -0.49933522410000   -0.01418660790000
H        -1.73164313180000   -1.77047155340000   -0.03181707040000
H         0.43217136360000   -0.62755874130000   -0.02229552270000
O        -3.98491573610000    2.20613478120000    0.01674403460000
C        -5.27884921250000    1.72796052400000    0.01053096790000
H        -5.46322722780000    1.13130140830000   -0.90822295050000
H        -5.98209759620000    2.58569857000000    0.02208753640000
H        -5.46321338340000    1.10676116460000    0.91285526960000
C         0.89419075400000    2.09713951440000    0.00772547850000
C         2.20465403190000    1.37242187840000   -0.00364133680000
H         2.29479121290000    0.73091794890000    0.89784841080000
Li        3.73096212270000    2.74243067170000    0.00820209420000
H         2.29053522560000    0.75196740970000   -0.92016602340000
O         0.91839018170000    3.31826736130000    0.02178310570000
21
 energy: -32.237563744479 gnorm: 0.030098768080 xtb: 6.4.1 (afa7bdf)
C        -2.83870188833608    1.44869159203003    0.00616569787144
C        -2.87735213468169    0.05121947723356   -0.00928340899555
C        -1.69249333275543   -0.67061667466384   -0.01900453705183
C        -0.46579671647448   -0.02424684015811   -0.01373381827148
C        -0.40095653261583    1.37194748384072    0.00158073886327
C        -1.60036504444563    2.09316858011317    0.01158964350731
H        -1.57925268674919    3.17339957740356    0.02435187050312
H        -3.81798681513661   -0.47994554843684   -0.01414510983907
H        -1.72862884116418   -1.75038768935695   -0.03168102272800
H         0.43713797238729   -0.61475644078134   -0.02220301896236
O        -3.94897297632112    2.23731726039222    0.01694884584159
C        -5.24471775828762    1.71351304571577    0.01041592011234
H        -5.44944056433547    1.12045125249569   -0.89450200921741
H        -5.92905064747347    2.56837438236738    0.02208244553156
H        -5.44920190159761    1.09633616822661    0.89909838007218
C         0.91095151216052    2.09890758841610    0.00761265022083
C         2.20916591018698    1.36326187525182   -0.00374034718520
H         2.21494591840493    0.68129843777646    0.86179362928178
Li        3.60470380045580    2.80251360713365    0.00921704146995
H         2.21102264701318    0.70153815831376   -0.88486361214160
O         0.91789782326570    3.32826360428657    0.02230018381713
21
 energy: -32.244020189765 gnorm: 0.013592577810 xtb: 6.4.1 (afa7bdf)
C        -2.81920406442793    1.45336801915644    0.00575424544894
C        -2.86725259866527    0.06410686035204   -0.00926982493193
C        -1.68642672221150   -0.65611874389509   -0.01891089652097
C        -0.46138131868551   -0.02329657929274   -0.01375268851521
C        -0.38892628401352    1.36742736929458    0.00101817968463
C        -1.57860193941053    2.08966689829574    0.01093137052919
H        -1.54787333000997    3.16822694458133    0.02374900713901
H        -3.81158312213064   -0.45773851309822   -0.01411983641306
H        -1.72908809179557   -1.73481762756236   -0.03137714550331
H         0.44237136385459   -0.61004703497002   -0.02202325841821
O        -3.91287845453429    2.27311460284709    0.01718144850382
C        -5.20875805166528    1.70465504244048    0.01044545577096
H        -5.40375130705451    1.11253355875743   -0.88711653687973
H        -5.88231897979168    2.55697366844177    0.02227760400209
H        -5.40306999664647    1.08867840461129    0.89195812220249
C         0.93428365098597    2.08847913546750    0.00739774230134
C         2.20017565733872    1.31721740505179   -0.00432729218631
H         2.14583176378071    0.62336903925239    0.84663941975354
Li        3.37368080574727    2.91922367605841    0.01129343509284
H         2.14190390501788    0.64278043057238   -0.87056490027534
O         0.94577485781753    3.32244634123777    0.02281651191522
21
 energy: -32.248210678852 gnorm: 0.023338040633 xtb: 6.4.1 (afa7bdf)
C        -2.80027134837204    1.46196762999162    0.00530382323964
C        -2.86087958776989    0.07672879125051   -0.00939959447998
C        -1.68460251967249   -0.65030694520713   -0.01900832448261
C        -0.45759996411765   -0.02996483949689   -0.01400399789612
C        -0.37601611626907    1.36037418705457    0.00042820374726
C        -1.55541476399114    2.09120715407091    0.01026409085227
H        -1.51493093929601    3.16919773012541    0.02304795277201
H        -3.80842373757909   -0.43735775479643   -0.01417367518096
H        -1.73592366276037   -1.72858612778301   -0.03135986126324
H         0.44405911891634   -0.61877851722079   -0.02220139507221
O        -3.88179420807128    2.30162734169735    0.01720963095899
C        -5.17860220451887    1.70608352811385    0.01068361132664
H        -5.35460574763851    1.11345680941014   -0.88613038298195
H        -5.85301614372689    2.55403740807856    0.02277650223901
H        -5.35313160521703    1.08969196137850    0.89166399510628
C         0.96062228557442    2.06160133949796    0.00711328180719
C         2.19489433550254    1.25802415737964   -0.00496623159482
H         2.11274953567844    0.57130427653330    0.84264302532307
Li        3.08293489913969    3.07305740944320    0.01387367402550
H         2.10784859024431    0.58922947390030   -0.86662742146358
O         0.99501152744458    3.29765388417845    0.02286325571763
21
 energy: -32.249355970423 gnorm: 0.018386667679 xtb: 6.4.1 (afa7bdf)
C        -2.79054796397085    1.46828821177110    0.00498486608523
C        -2.85968794805614    0.08175170802625   -0.00991603538222
C        -1.68750949221884   -0.65638326226250   -0.01966724909423
C        -0.45645503312770   -0.04189136200584   -0.01465147436707
C        -0.37054902059527    1.35098605684601   -0.00006107368240
C        -1.54288310082931    2.09301705614673    0.00987876277562
H        -1.49598206205146    3.17131237217164    0.02252212064031
H        -3.80869019723781   -0.42900031733514   -0.01467249528671
H        -1.74566086980817   -1.73458939454158   -0.03184081315540
H         0.44206913248062   -0.63602484243786   -0.02261214009126
O        -3.86900516179152    2.30789945728578    0.01702309112409
C        -5.16546869878658    1.71555843363883    0.01101421989040
H        -5.32706603213946    1.12114344670327   -0.88959526847768
H        -5.84887821044244    2.55923814525258    0.02346078456544
H        -5.32471996036001    1.09709011063479    0.89577949939662
C         0.96550746026380    2.04065602001069    0.00730878401925
C         2.19857081764191    1.24543932578920   -0.00446021935622
H         2.12232482468931    0.56494165666010    0.84692054062056
Li        2.92505047628175    3.13333441702110    0.01213982697415
H         2.11569873580410    0.58000594226636   -0.86767033273837
O         1.00679004775404    3.27747571595851    0.02411476823989
21
 energy: -32.249964608591 gnorm: 0.006677583107 xtb: 6.4.1 (afa7bdf)
C        -2.79006558268867    1.46891565293662    0.00461662989511
C        -2.86319126826328    0.07947542814744   -0.01040078840106
C        -1.69428075423854   -0.66824203597136   -0.02028308459812
C        -0.45900361809126   -0.05610550996175   -0.01544155513986
C        -0.37248147236887    1.33855450704262   -0.00090351308081
C        -1.54091827571567    2.08950536811845    0.00925151534937
H        -1.48922413792246    3.16817034051590    0.02178666011844
H        -3.81306861156341   -0.42988420044530   -0.01500496980208
H        -1.75721933115689   -1.74632486500427   -0.03221081728040
H         0.43731888407579   -0.65474819717067   -0.02307467962225
O        -3.86894666531606    2.30207492081083    0.01662808185447
C        -5.16439489338496    1.72710891322183    0.01135920657318
H        -5.32325291855064    1.13159407237392   -0.89251030742996
H        -5.85413974550632    2.56946355091005    0.02400103304446
H        -5.32016725708924    1.10756347437793    0.89954348986139
C         0.95206154331384    2.03093805428703    0.00796321574024
C         2.20579376554348    1.26584575457990   -0.00420241539210
H         2.15493038769914    0.58637623994507    0.85220504624665
Li        2.92254203221187    3.13368028555453    0.01015115196850
H         2.14500393646475    0.59765521163319   -0.86982093818714
O         0.97561172604736    3.26863193169807    0.02634720098197
21
 energy: -32.250145077811 gnorm: 0.003922912864 xtb: 6.4.1 (afa7bdf)
C        -2.78903235499407    1.46718580818075    0.00385159113085
C        -2.86592890659856    0.07701411812093   -0.01114503892663
C        -1.70068299515618   -0.67684540795899   -0.02129782071766
C        -0.46196106673372   -0.06926113338817   -0.01689914592653
C        -0.37181105911366    1.32492768156569   -0.00266334506333
C        -1.53749995508320    2.08132776519887    0.00799862663606
H        -1.47946064938369    3.15942260904868    0.02065210667540
H        -3.81732581687477   -0.42974237133836   -0.01540219719960
H        -1.76929948087857   -1.75447161198656   -0.03292925186511
H         0.43271698368616   -0.67081498602341   -0.02422002976635
O        -3.86512924277345    2.30138458325022    0.01613314496380
C        -5.16096926587464    1.73743974393063    0.01182483430621
H        -5.32716096972314    1.14269401729670   -0.89163622059282
H        -5.84915308240577    2.58097781452522    0.02470834902511
H        -5.32309600986010    1.11893330280951    0.89996099261247
C         0.94580331597038    2.02068963398589    0.00894121471301
C         2.21546987448456    1.27534371266762   -0.00428619453630
H         2.18824916072329    0.59706267175248    0.85627202625628
Li        2.89124826125597    3.16717907847145    0.00630691456175
H         2.17135278736094    0.59922328644623   -0.86775967769021
O         0.95657821547218    3.26057858104465    0.03158928410361
21
 energy: -32.250234493302 gnorm: 0.003788348201 xtb: 6.4.1 (afa7bdf)
C        -2.78935889025661    1.46314524965294    0.00255254315496
C        -2.86742921076893    0.07318965369955   -0.01221693957879
C        -1.70370359569514   -0.68187813585510   -0.02298867278065
C        -0.46329930924838   -0.07718521730840   -0.01969020961761
C        -0.37092682464001    1.31605814746560   -0.00603892172156
C        -1.53656444756773    2.07304725016471    0.00567515792133
H        -1.47444274892405    3.15051392671282    0.01869972989940
H        -3.81998991897519   -0.43173475960575   -0.01558990471226
H        -1.77549749246221   -1.75915836740221   -0.03387480666315
H         0.43110236757257   -0.67932100377202   -0.02639995981571
O        -3.86246791493207    2.30119554633578    0.01544367767177
C        -5.15980508938228    1.74353465119782    0.01228890229306
H        -5.33470083559682    1.14959117941242   -0.88988814796787
H        -5.84212325952444    2.59141789594822    0.02548900182622
H        -5.32938414311471    1.12624643514397    0.89967633857327
C         0.94280764422109    2.01769541244883    0.01142903133203
C         2.22113425572909    1.28519677449190   -0.00513487588464
H         2.21178411877253    0.61328736797753    0.86161499881691
Li        2.88077201279274    3.17944784651276   -0.00150483204308
H         2.18006434607478    0.59720223737990   -0.86230505990939
O         0.94493667942576    3.25875680699877    0.04276311190577
21
 energy: -32.250748815820 gnorm: 0.021242606129 xtb: 6.4.1 (afa7bdf)
C        -2.79009615636782    1.44445247502515   -0.00535911439629
C        -2.87320069366859    0.05553647921189   -0.01862587908652
C        -1.71520700896559   -0.70369841108233   -0.03357041148354
C        -0.46772024277144   -0.11158116216957   -0.03795419204119
C        -0.36621779697092    1.27777236358662   -0.02849251363858
C        -1.53214142230078    2.03657693364658   -0.00915824628372
H        -1.45238981380559    3.11150753088198    0.00626125179222
H        -3.83095660341044   -0.44125665111606   -0.01595081279882
H        -1.80026189200638   -1.77963404287384   -0.03936180740846
H         0.42566771581341   -0.71609035120808   -0.04075405854542
O        -3.84943157400594    2.30070249656586    0.01156404632056
C        -5.15479286154674    1.77071803614650    0.01478845055322
H        -5.36666854974040    1.18014335884019   -0.88194930489063
H        -5.80998170440327    2.63925504113476    0.02975416792961
H        -5.35433305697831    1.15902396212024    0.89970466255213
C         0.93175302641583    2.00467583541452    0.02687450423662
C         2.24406284420528    1.32565163933944   -0.01229195789701
H         2.32598481664299    0.70334182819546    0.89552844143805
Li        2.82575682682527    3.23713517415627   -0.05215231944652
H         2.19552299445800    0.56618542018907   -0.82691838513942
O         0.89755889608140    3.24983094159539    0.11806364093369
21
 energy: -32.248867569903 gnorm: 0.070913798947 xtb: 6.4.1 (afa7bdf)
C        -2.79194556483944    1.41255087758168   -0.02047999203943
C        -2.88251836891231    0.02585962395601   -0.02993098903937
C        -1.73375922484076   -0.73832475760707   -0.05269045444903
C        -0.47504186543121   -0.16733181874887   -0.07296303788344
C        -0.35800509061184    1.21497400492051   -0.07309204411050
C        -1.52570918554803    1.97494314513045   -0.03863178513612
H        -1.41604724508734    3.04532890455508   -0.01864254698946
H        -3.84902324214737   -0.45725877541651   -0.01504903186602
H        -1.84065199073197   -1.81193210628771   -0.04795278949905
H         0.41704140221071   -0.77511837621898   -0.06824354217458
O        -3.82757769657063    2.30062063114734    0.00408474562052
C        -5.14660729470750    1.81485651383260    0.01920827797531
H        -5.42310733945644    1.22974683972694   -0.86711469675387
H        -5.75426259180954    2.71878694383499    0.03707394823814
H        -5.39791351580793    1.21321097858804    0.89955650213659
C         0.91440936208332    1.98403240408943    0.05635522745714
C         2.27956977990019    1.39169295084449   -0.02913420741733
H         2.52991630359287    0.86977778974704    0.95701293989452
Li        2.73143757221670    3.32846581737016   -0.14560223227548
H         2.21064576395282    0.49966419975805   -0.76067862860519
O         0.82205777604564    3.23570310679639    0.26691449961658
21
 energy: -32.251640402995 gnorm: 0.036433129283 xtb: 6.4.1 (afa7bdf)
C        -2.79008837484263    1.42449238769599   -0.01767485575522
C        -2.87766886162092    0.03744983235095   -0.02524006064000
C        -1.72348054726609   -0.72225279289890   -0.04454979365998
C        -0.47064703699864   -0.14173978229869   -0.05778444846507
C        -0.35994085465741    1.24421619430520   -0.05409928633239
C        -1.52787723885499    2.00134072498320   -0.03133527343616
H        -1.43283969102143    3.07369774045579   -0.01403846180205
H        -3.84013490251745   -0.45176875218523   -0.01263831488522
H        -1.81947395705481   -1.79706194452402   -0.04246696692610
H         0.42164205591253   -0.74842260649255   -0.05718685554527
O        -3.83483669418871    2.30175991056658    0.00511898960334
C        -5.15003500016685    1.79523824257836    0.01862714549590
H        -5.39813316344168    1.20787527935918   -0.87091198546564
H        -5.77426292419335    2.68593744073373    0.03523022264290
H        -5.37511881195278    1.19177506457107    0.90242275035701
C         0.92715578802823    1.99176648023174    0.04808759447533
C         2.25760373476369    1.35552326753942   -0.01756974674186
H         2.42447332020381    0.79058073876507    0.92422873916266
Li        2.75238647440124    3.29163864180024   -0.10554015086104
H         2.20743112811880    0.54032011134652   -0.78746548903800
O         0.86675330084940    3.23788271871639    0.20478641051684
21
 energy: -32.252769930037 gnorm: 0.032202611183 xtb: 6.4.1 (afa7bdf)
C        -2.79052726046230    1.42763915345999   -0.01921020901120
C        -2.87528281517736    0.04101018271321   -0.02522001377718
C        -1.71841983145914   -0.71395663044789   -0.04464168387908
C        -0.46851880839818   -0.13017923072230   -0.05873610870212
C        -0.36009639914737    1.25611436708342   -0.05713952087202
C        -1.53044000824043    2.00951342765849   -0.03439042788069
H        -1.43965557260871    3.08224909044834   -0.01859384583410
H        -3.83646991739779   -0.45021726903213   -0.01098597666711
H        -1.80987776535317   -1.78907267267535   -0.04208436807274
H         0.42452407349950   -0.73549915532479   -0.05837383562830
O        -3.83744484450084    2.30253116994881    0.00400827775560
C        -5.15179351345568    1.78704614953425    0.01924380797121
H        -5.39519530201946    1.19899043246221   -0.86953346953677
H        -5.77829390576110    2.67452305317990    0.03611132092803
H        -5.37001444781328    1.18349885236099    0.90364532288410
C         0.93221029976216    1.99614249294060    0.04423928795423
C         2.24463719221257    1.34145891978154   -0.02427399990527
H         2.41365368281220    0.79765393611944    0.92129787997939
Li        2.75876820934932    3.26711323865260   -0.09964167749932
H         2.18815578991861    0.52416536107871   -0.78432073106572
O         0.88298888774042    3.23952402838000    0.21860013355903
21
 energy: -32.259753267589 gnorm: 0.023631778846 xtb: 6.4.1 (afa7bdf)
C        -2.78951114808916    1.43860638031065   -0.03380046281271
C        -2.87240810662406    0.05129977451716   -0.02983664028108
C        -1.70780863017775   -0.69526807796437   -0.05140277629407
C        -0.46506410762763   -0.10337296029334   -0.07443670400103
C        -0.36161545249023    1.28659409647520   -0.08781538266218
C        -1.53494249030903    2.03566878038302   -0.06422136551443
H        -1.45522584073747    3.11091008833756   -0.05038520430623
H        -3.83056201522793   -0.44381615600017   -0.00366294126079
H        -1.78588931420795   -1.77226253753315   -0.04028337585484
H         0.42704916166466   -0.70994285232387   -0.06781503836488
O        -3.84215624991764    2.30511737655421   -0.00553928867310
C        -5.15756592821229    1.77100669765749    0.02235171687575
H        -5.38032664846876    1.18031231399538   -0.86516063164467
H        -5.79183964429619    2.64891357032305    0.04215016333772
H        -5.34005646997101    1.16868276472890    0.91390253406525
C         0.94743455279755    1.98451123409113    0.05327433319695
C         2.18693758367552    1.27576609588478   -0.06557710689334
H         2.46557764454307    0.89439921179417    0.92025791250180
Li        2.72719056804151    3.24142132388886   -0.11103475661076
H         2.11132708430865    0.42954828090818   -0.74743320622900
O         0.93236319482610    3.21215349186520    0.34646838412561
21
 energy: -32.265211345757 gnorm: 0.073620981373 xtb: 6.4.1 (afa7bdf)
C        -2.78764682703744    1.44946086102328   -0.05408855593199
C        -2.87613647894553    0.06050158923683   -0.03977696327447
C        -1.70511326253808   -0.68418384666377   -0.06503742122919
C        -0.46828504824617   -0.08357651038548   -0.10561924795800
C        -0.36627341240021    1.31380131267098   -0.14961227386324
C        -1.53775702662063    2.06277696032357   -0.10880806813034
H        -1.47059228666631    3.14079197206642   -0.09119747675553
H        -3.83092034420573   -0.43772021870067    0.00528921869693
H        -1.76977525601413   -1.76380766625294   -0.03756622185503
H         0.41843632401640   -0.69782241698186   -0.08308821385537
O        -3.84647132616721    2.30527239287595   -0.01617203563614
C        -5.16653558097039    1.76397570056043    0.02600239373415
H        -5.36095778716437    1.17030413496947   -0.86363236234178
H        -5.81109335138667    2.63307416034311    0.05005944947156
H        -5.30387826458157    1.16287548452901    0.92778605315369
C         0.96193563507658    1.94920722795706    0.05908590100750
C         2.10953382846911    1.19349449718028   -0.13159555387392
H         2.63587384996168    1.09934020295746    0.91605272573316
Li        2.65343537290494    3.24994429982540   -0.14293861140302
H         2.01542185899213    0.27230212384145   -0.66663308806735
O         0.98970712702355    3.15023663622406    0.57149051507836
21
 energy: -32.270468725465 gnorm: 0.035597323185 xtb: 6.4.1 (afa7bdf)
C        -2.78424395169038    1.45809365205908   -0.06205874477374
C        -2.88352172550158    0.06676463596950   -0.04485698251435
C        -1.71765026695612   -0.69464534621193   -0.07040818581808
C        -0.47694101844087   -0.09383404161527   -0.10961618451066
C        -0.37059241713944    1.30738105726388   -0.14841780208076
C        -1.53032707606229    2.07111784601282   -0.11718730618753
H        -1.46786307715974    3.15072604174629   -0.10007531753956
H        -3.83752050175695   -0.43186266079076    0.00744776079145
H        -1.78399551900825   -1.77466696666399   -0.03462413817753
H         0.40358476637636   -0.71604155011328   -0.07798667395884
O        -3.84879021380347    2.30365553105352   -0.01925083395074
C        -5.16624500140266    1.77234871774050    0.02890109410222
H        -5.34631604120826    1.17014182318088   -0.86536758203314
H        -5.83226200161723    2.63349784326262    0.05388734358239
H        -5.28287154502005    1.17083281181320    0.93835259634009
C         0.96029447606717    1.92479452834515    0.08256935220977
C         2.13365207461099    1.20313522939300   -0.10226964582655
H         2.66590252517379    1.06758557524602    0.86654422942191
Li        2.63552884413292    3.32376398384008   -0.14025922325122
H         2.02653972571815    0.28171272980035   -0.63619469563223
O         0.98654568818786    3.11574745626836    0.55087110250706
21
 energy: -32.274472771323 gnorm: 0.027491367207 xtb: 6.4.1 (afa7bdf)
C        -2.78172211955525    1.46563081329254   -0.08582140440112
C        -2.88989905306801    0.07677407734055   -0.05138776080149
C        -1.73062542349351   -0.69238558005668   -0.07673234092583
C        -0.48885899313926   -0.09616733953110   -0.12452377341210
C        -0.36964694866337    1.30375149743106   -0.16142608626545
C        -1.52340131856935    2.07372867281564   -0.14590257489093
H        -1.46322390981714    3.15310630050233   -0.14073279731847
H        -3.84476675519716   -0.41902645065390    0.02183949500855
H        -1.79991890794474   -1.77142155718894   -0.02051715298604
H         0.38537443516804   -0.72485635494310   -0.08051880856580
O        -3.84607049361640    2.31360176702236   -0.03795535754361
C        -5.15966082651716    1.77257852205786    0.03177613264105
H        -5.34901700799874    1.15299335935377   -0.85076182697073
H        -5.83605325113998    2.62683999023995    0.05026630475851
H        -5.26837028796596    1.18390265214894    0.94984252716521
C         0.96957901345638    1.90086613491412    0.11441457944693
C         2.14011703057438    1.19087177037567   -0.10755705245236
H         2.76304041860528    1.10537578975918    0.78897099651145
Li        2.54711888511698    3.38376761015587   -0.14672394526951
H         2.02583973910256    0.23307471291867   -0.58881671039986
O         1.00307351816237    3.07724250964523    0.66226771937157
21
 energy: -32.276096023013 gnorm: 0.060883865798 xtb: 6.4.1 (afa7bdf)
C        -2.77887306244918    1.47469485249734   -0.10888145170125
C        -2.90023221785084    0.09129729892105   -0.06733559919708
C        -1.75463940456767   -0.69162323220691   -0.08924556968898
C        -0.50956920501512   -0.10663311602624   -0.11674645831718
C        -0.36935377275848    1.28733820986748   -0.12937975880661
C        -1.51261202716635    2.06858359650908   -0.15393675220432
H        -1.45312392026905    3.14658191771414   -0.16122505272854
H        -3.85706751291271   -0.39698566190162    0.01460396504485
H        -1.83259729066924   -1.76683362249420   -0.03578837615895
H         0.35657173116416   -0.74244707508288   -0.08102464425673
O        -3.84075942607572    2.33070379438233   -0.05912583506697
C        -5.14479921421491    1.77672158056914    0.03368514831310
H        -5.35890017301858    1.13982420427526   -0.83344996005251
H        -5.83263534654934    2.62234300544170    0.04618218227393
H        -5.25975707250321    1.20080162501145    0.95551058414681
C         0.97352103826048    1.85920070736131    0.15995688629338
C         2.14024348062830    1.17007030975118   -0.12093769460178
H         2.97493853138388    1.22192314811395    0.69335842064323
Li        2.40517649718156    3.45837310071452   -0.13795933360960
H         2.02669455207217    0.15610597714573   -0.52598794524293
O         1.01068155882979    3.01020827703620    0.71772740761810
21
 energy: -32.279907571546 gnorm: 0.035226583078 xtb: 6.4.1 (afa7bdf)
C        -2.77709225478699    1.47225378972526   -0.11078219087573
C        -2.90331555665482    0.09222800167397   -0.06132007450931
C        -1.76747836432359   -0.69772812591677   -0.07828445080405
C        -0.51594992251553   -0.12498848327715   -0.10453769162820
C        -0.36274860689465    1.26195543804561   -0.11131466473210
C        -1.50384962378107    2.04877393041084   -0.14573283772066
H        -1.43584353574938    3.12525345427829   -0.16742337957846
H        -3.86434830992797   -0.38707297629485    0.01782107824711
H        -1.85903361862754   -1.77000121338717   -0.02755428155744
H         0.34995186011801   -0.76063379343278   -0.06849975134317
O        -3.83468542295717    2.33966614153221   -0.07911543409158
C        -5.13131326834164    1.78295389255110    0.02686383470569
H        -5.37400075856815    1.12870475504617   -0.82192673969599
H        -5.81552675706324    2.63070007079520    0.02550379497781
H        -5.26712155324816    1.22365582819440    0.95485347822408
C         0.97100143676063    1.85091205146833    0.15229522331691
C         2.15346190058875    1.18013406672170   -0.11414036549322
H         2.97217895369285    1.21771533262193    0.63636162970995
Li        2.37497031850879    3.48507207712597   -0.14947003892173
H         2.08862173468886    0.20808676204626   -0.54690250645128
O         0.98502909258191    3.00260789767148    0.77330553092137
21
 energy: -32.280645468390 gnorm: 0.047160500417 xtb: 6.4.1 (afa7bdf)
C        -2.77052477834232    1.47088740145145   -0.10639573155980
C        -2.90032622725948    0.09170186120851   -0.06256055911002
C        -1.76898294762061   -0.70186868770735   -0.07881535286203
C        -0.51142712033835   -0.13705273160276   -0.09739130251438
C        -0.35053342756415    1.24798913829642   -0.10921388184578
C        -1.49294604886185    2.03708601692343   -0.14009846141944
H        -1.41626622753291    3.11251521163828   -0.15172980200487
H        -3.86564373472438   -0.38065989787380    0.00198268555933
H        -1.87300978593203   -1.77361362144004   -0.04182019440066
H         0.35623140959970   -0.77315374873931   -0.05639964806850
O        -3.82808056163052    2.34289488568149   -0.08897393667305
C        -5.11915034230411    1.78672643758797    0.02939847972598
H        -5.37470096895139    1.12606971242837   -0.80914252023104
H        -5.80164911317206    2.63597244968020    0.02411034060780
H        -5.25417180300675    1.23405307032655    0.96383225715824
C         0.98190208983544    1.85236480205284    0.14802061792810
C         2.15722232479650    1.18467811632371   -0.11761898988156
H         2.92604983424083    1.26977900172226    0.59643998710606
Li        2.32092812093654    3.50499693752566   -0.11476933787271
H         2.08272525555162    0.17371054510345   -0.54259087678166
O         0.98526179578019    3.00517199701269    0.75373638983993
21
 energy: -32.284141312968 gnorm: 0.026127045765 xtb: 6.4.1 (afa7bdf)
C        -2.76542385090458    1.46866830183960   -0.10793205967586
C        -2.90935122590076    0.08711070287772   -0.06554851550961
C        -1.78249011399717   -0.71992637440801   -0.07571870531730
C        -0.51764488844997   -0.16304077709425   -0.08870147860935
C        -0.34976965570907    1.22494954519700   -0.11522570391800
C        -1.48424192545683    2.02720081753185   -0.14113352528011
H        -1.39848525279534    3.10364919530665   -0.14157285099810
H        -3.87970184798536   -0.37681006553864   -0.01140567244660
H        -1.89783092908558   -1.79297004845793   -0.04049922915693
H         0.34667739384534   -0.80765863623671   -0.02700118262350
O        -3.82395817477375    2.34043846851337   -0.10825633869708
C        -5.11536601869225    1.80401708354805    0.02265911433681
H        -5.36258067431054    1.13476260463404   -0.81019653266261
H        -5.79912313222712    2.65611546634923    0.01079339972722
H        -5.23070483887520    1.26071273856595    0.97166452066257
C         0.98550967117962    1.82237350307295    0.17277220800628
C         2.13700872812880    1.16987615109219   -0.12872633119286
H         3.00682049344959    1.37245214473356    0.51482787792789
Li        2.26147494108421    3.56951581702101   -0.11944067737570
H         2.08264851694521    0.16343720499458   -0.53345705920794
O         0.97944052803066    2.96537505405781    0.82209890471077
21
 energy: -32.285727778639 gnorm: 0.038955903122 xtb: 6.4.1 (afa7bdf)
C        -2.76236490470501    1.46039648867084   -0.11666304275444
C        -2.91384846262084    0.07853848438913   -0.07378525874852
C        -1.79181399104231   -0.73461515752002   -0.06566248968204
C        -0.52428267789546   -0.18644153165927   -0.05845698669323
C        -0.35348883858501    1.19882237748709   -0.07326959983545