22
 energy: -23.194384320418 gnorm: 0.000632136307 xtb: 6.4.1 (afa7bdf)
N        -3.69992708455461   -2.44696513874598   -0.76519102149449
C        -2.27795731572095   -2.65056568310402   -0.70216703442551
C        -4.28270471550862   -1.84853070206507    0.40119700862445
C        -1.48205004357048   -1.64097872852794   -1.55287904592625
C        -1.92092675419308   -4.06614404216415   -1.17732722654006
H        -1.92929985674697   -2.55202780836494    0.34387381056371
C        -4.04655804774177   -0.32570833057428    0.51123404503345
H        -3.85361051269733   -2.30599509132962    1.32010240155003
C        -5.78862631933464   -2.11116993479953    0.41460615747049
H        -1.75842252976470   -1.76040760155593   -2.60128107608997
H        -0.41138371010262   -1.80366347057006   -1.44549857705677
H        -1.71412473646118   -0.62459549728382   -1.24885329071237
H        -2.24817989350386   -4.18748627559713   -2.21162902482094
H        -2.43136994305043   -4.80026027543560   -0.55974496299154
H        -0.84841405875664   -4.23739476394149   -1.12002539653337
H        -2.98542124623397   -0.11692883551441    0.61784669910484
H        -4.56506631556124    0.08273358572781    1.37665700419445
H        -4.41001973495435    0.16366290063350   -0.39205458835075
H        -6.23831349478283   -1.64609407760622   -0.46605311764737
H        -6.24527438696350   -1.69260995727157    1.30767065770249
H        -5.97308684664509   -3.18297871491506    0.38965183822554
Li       -4.63216497185117   -2.67450513709446   -2.21728387438005
