22
 energy: -23.189330876936 gnorm: 0.056850372479 xtb: 6.4.1 (afa7bdf)
N        -3.69065508090000   -2.37885099490000   -0.80622126530000
C        -2.24863921460000   -2.62973220110000   -0.70216620750000
C        -4.29094998280000   -1.83100873900000    0.41566132920000
C        -1.48132146980000   -1.61412394990000   -1.55295636450000
C        -1.94458590730000   -4.04637792580000   -1.19901701790000
H        -1.87417465180000   -2.55916587760000    0.32744833050000
C        -4.03306436490000   -0.32635073380000    0.52779342170000
H        -3.90277182460000   -2.31829148500000    1.31982432170000
C        -5.80149439120000   -2.08726374780000    0.38634235160000
H        -1.80515960430000   -1.63880024190000   -2.60018272240000
H        -0.40575096150000   -1.81888100570000   -1.52684505560000
H        -1.63157191870000   -0.59314777710000   -1.18724175890000
H        -2.25181045500000   -4.18260371630000   -2.24303101240000
H        -2.47136843120000   -4.79581293740000   -0.59767001700000
H        -0.87187226130000   -4.25870060180000   -1.13514726290000
H        -2.97102312060000   -0.11967183900000    0.69644166210000
H        -4.58531126170000    0.10478038510000    1.36965227850000
H        -4.33577857570000    0.20390868550000   -0.38290065200000
H        -6.27287730530000   -1.62248626760000   -0.48785640400000
H        -6.28306380160000   -1.68346453010000    1.28354710920000
H        -6.01576813370000   -3.16142765700000    0.34740332820000
Li       -4.57388980020000   -3.07114042190000   -2.03002700680000
22
 energy: -23.192733597366 gnorm: 0.025352874933 xtb: 6.4.1 (afa7bdf)
N        -3.69889950651647   -2.40402675469093   -0.78884550223326
C        -2.26477734164225   -2.63197979017186   -0.71690170943847
C        -4.29553203065982   -1.82917583923259    0.40392338793864
C        -1.47156763433460   -1.62108848098155   -1.55502946980620
C        -1.93044203948484   -4.04727422457829   -1.19914406305965
H        -1.91380631091689   -2.54939819909728    0.32370756667013
C        -4.03826445405389   -0.32177624389463    0.53617080419137
H        -3.88733831947217   -2.31485436166510    1.30736588355564
C        -5.80280401913608   -2.08383867336863    0.39130168652757
H        -1.80484168888463   -1.66247772620098   -2.59341064137931
H        -0.39910529981377   -1.82452084909893   -1.52042868059664
H        -1.64063511156208   -0.60959468722851   -1.18861269498152
H        -2.24364250626330   -4.16203767437742   -2.24132597389610
H        -2.46267242651962   -4.78062422737975   -0.59135130333827
H        -0.86019875685014   -4.24970124908120   -1.13145865046510
H        -2.97701915987659   -0.12880955619763    0.69270381234769
H        -4.58680040809119    0.10389495152115    1.37885190065916
H        -4.34590626629715    0.18601458875028   -0.37856944301360
H        -6.25099648377234   -1.61086199623680   -0.48622933913152
H        -6.27338718703171   -1.67525279170257    1.28598524964558
H        -5.99867207436683   -3.15800354318127    0.35491433903860
Li       -4.59559349315365   -3.05322625200550   -2.06076577373475
22
 energy: -23.193847983217 gnorm: 0.005726135565 xtb: 6.4.1 (afa7bdf)
N        -3.70120344194560   -2.42798816853780   -0.77213077378767
C        -2.27782138962984   -2.63467690651133   -0.71078243263068
C        -4.28769468499929   -1.83737660862752    0.40004616349273
C        -1.47993772713331   -1.62294180409772   -1.55300368318069
C        -1.92705332774457   -4.04783830007051   -1.19480044204918
H        -1.93993502307247   -2.54292255144468    0.33911929716421
C        -4.03624025418300   -0.32181544503328    0.52997332143242
H        -3.86674720473389   -2.31652510880523    1.31063941244677
C        -5.79495403658630   -2.08528054136077    0.39433942743914
H        -1.81073813926298   -1.68329605182536   -2.58913207313944
H        -0.41270558105560   -1.83077414559102   -1.50570068439921
H        -1.65610373536015   -0.61393131994126   -1.19482679685081
H        -2.24117504364160   -4.14869735113464   -2.23654322139491
H        -2.45569566091940   -4.77831242293308   -0.58798317459509
H        -0.85804435550387   -4.23393793745003   -1.12581591232660
H        -2.97761398447208   -0.13025817004560    0.67961337833408
H        -4.58248307194833    0.09163654996509    1.37549152990900
H        -4.35529349405232    0.17543824555132   -0.38332197258877
H        -6.22793210676001   -1.60690166197029   -0.48507316006721
H        -6.25650613017124   -1.67076588264569    1.28605091562129
H        -5.98540273345722   -3.15676177700063    0.35996310135728
Li       -4.61162139206694   -3.00468622058999   -2.11327083468667
22
 energy: -23.194079828816 gnorm: 0.003763315168 xtb: 6.4.1 (afa7bdf)
N        -3.70230175906582   -2.44063919476006   -0.76354088370682
C        -2.28097764581870   -2.63915963705486   -0.70519536519917
C        -4.28575462098715   -1.84203989872282    0.40109484402943
C        -1.48657819338896   -1.62349470645478   -1.54992866813953
C        -1.92299397588221   -4.05086224367647   -1.19181533440553
H        -1.93592876298051   -2.54646086837987    0.34340912370122
C        -4.03334771676250   -0.32279723111670    0.52366737636305
H        -3.86563830821975   -2.31199510982368    1.31992695382977
C        -5.79401232176583   -2.08739354418360    0.39888889101009
H        -1.81426692514321   -1.69273266631040   -2.58695121972296
H        -0.41957060012641   -1.82832542888996   -1.49671759160501
H        -1.66827019716066   -0.61322479292570   -1.19807133304930
H        -2.23865967866990   -4.15044505784897   -2.23281356578002
H        -2.44717981176117   -4.78552969529822   -0.58721894203624
H        -0.85302824266569   -4.22943072010295   -1.12450222631242
H        -2.97455760331083   -0.12826739999762    0.66786912739401
H        -4.57691674982576    0.08834879499557    1.37137325932927
H        -4.35963946959308    0.17128761446276   -0.38907039799219
H        -6.22394111200973   -1.60941933501144   -0.48213204224315
H        -6.25402544842593   -1.66980069571694    1.28961170466157
H        -5.98678581392909   -3.15779736748388    0.36481812051124
Li       -4.61852756120711   -2.95843439579942   -2.14985044513732
22
 energy: -23.194178631184 gnorm: 0.003924652555 xtb: 6.4.1 (afa7bdf)
N        -3.70274056320170   -2.45045811551725   -0.75696353264965
C        -2.28077669147793   -2.64455057468919   -0.70016892814073
C        -4.28502508740787   -1.84540311418484    0.40410672925977
C        -1.49199937967325   -1.62515888124614   -1.54741214739146
C        -1.91839263394116   -4.05440909388078   -1.19010640159442
H        -1.92763780606890   -2.55280493963191    0.34583183489080
C        -4.03231005018635   -0.32420035151344    0.51805678975139
H        -3.86832377484449   -2.30751894222695    1.32904222231148
C        -5.79437117128797   -2.08844641200201    0.40321191188252
H        -1.81497756279236   -1.70015973780992   -2.58644500946308
H        -0.42325040594330   -1.82156533622847   -1.48911509149564
H        -1.68173225343912   -0.61375329553810   -1.20077464988131
H        -2.23505551326337   -4.15769164153943   -2.23052105836400
H        -2.43746419203574   -4.79440499219368   -0.58678586475679
H        -0.84707589825396   -4.22799339280416   -1.12436628563780
H        -2.97246468856506   -0.12739122599090    0.65573013369912
H        -4.57117482278452    0.08940520087114    1.36805771023476
H        -4.36439271243238    0.16797004690992   -0.39462089810620
H        -6.22644583717999   -1.61227800149510   -0.47868444250058
H        -6.25418197273703   -1.66944716489794    1.29403996688294
H        -5.99043592328349   -3.15849786257083    0.37004584812391
Li       -4.62267357790002   -2.90985575192005   -2.17930745155503
22
 energy: -23.194214839141 gnorm: 0.003114535248 xtb: 6.4.1 (afa7bdf)
N        -3.70295588024350   -2.45289268400859   -0.75619470759147
C        -2.27990563695114   -2.64714530908140   -0.69915323263705
C        -4.28531220689777   -1.84579154684099    0.40500022502419
C        -1.49346937475329   -1.62623878081939   -1.54621250007971
C        -1.91659714668463   -4.05630174252967   -1.18951676713983
H        -1.92533332635002   -2.55613793719956    0.34596280310115
C        -4.03228997781515   -0.32488293836696    0.51568835729056
H        -3.86980461598123   -2.30602489041758    1.33032284518644
C        -5.79477002258067   -2.08924770931238    0.40519885075710
H        -1.81253920058223   -1.70384386050683   -2.58666045803483
H        -0.42331938174108   -1.81629794884318   -1.48479423490053
H        -1.68896009155373   -0.61464225516655   -1.20211106999290
H        -2.23311343640048   -4.16277524554881   -2.22981007840360
H        -2.43324210619735   -4.79862833898225   -0.58622740077943
H        -0.84463582858624   -4.22851147447983   -1.12431695127402
H        -2.97173449916266   -0.12755340163551    0.64962996050084
H        -4.56782460118226    0.09118531919156    1.36708345840696
H        -4.36706513381285    0.16715605548518   -0.39655100249014
H        -6.23011356335886   -1.61395596261340   -0.47619919912395
H        -6.25426995033116   -1.67028294261695    1.29670581463912
H        -5.99214905765352   -3.15938716707484    0.37263303279435
Li       -4.62349747988018   -2.88641281873209   -2.18762635975323
22
 energy: -23.194267090706 gnorm: 0.002941999468 xtb: 6.4.1 (afa7bdf)
N        -3.70365370572320   -2.45559573701733   -0.75711470117121
C        -2.27900671388700   -2.65085535548109   -0.69877637509989
C        -4.28568212647082   -1.84624456804539    0.40525501768905
C        -1.49447595136986   -1.62863582292324   -1.54444987705207
C        -1.91449857503787   -4.05916674247952   -1.18823181203851
H        -1.92578014972295   -2.56039791364238    0.34611182787822
C        -4.03308654424170   -0.32632077105050    0.51176041002789
H        -3.86963990836328   -2.30490627066277    1.32904507642418
C        -5.79484734899403   -2.09127607515635    0.40865508106120
H        -1.80460072706734   -1.71258737776122   -2.58755492747265
H        -0.42226817098471   -1.80736987019849   -1.47513151142326
H        -1.70161286650413   -0.61707195612405   -1.20606627101707
H        -2.23079715321536   -4.17062686135242   -2.22823922400746
H        -2.42765519099113   -4.80371822394566   -0.58399002548571
H        -0.84168348047340   -4.22927440964331   -1.12367910538891
H        -2.97149669795954   -0.12840643571950    0.63851657377267
H        -4.56235842070397    0.09311948312057    1.36605408408941
H        -4.37338431137731    0.16540659095744   -0.39913935767041
H        -6.23616055474796   -1.61723095639508   -0.47134634886531
H        -6.25272528541596   -1.67265179021221    1.30172498214693
H        -5.99266642086147   -3.16161301098771    0.37743733009004
Li       -4.62482221458702   -2.84318950537979   -2.19798946098712
22
 energy: -23.194309480380 gnorm: 0.003182004279 xtb: 6.4.1 (afa7bdf)
N        -3.70437403915580   -2.45702901215373   -0.75911741578590
C        -2.27909918723747   -2.65317678994066   -0.69923747387270
C        -4.28565949933984   -1.84689073389727    0.40431702732354
C        -1.49393924132157   -1.63126562949020   -1.54357092050797
C        -1.91382447775626   -4.06146157509939   -1.18638901922117
H        -1.92909999894413   -2.56205318760024    0.34639464595597
C        -4.03457584442883   -0.32748791352962    0.50850196091946
H        -3.86658632607601   -2.30489413590360    1.32598575992509
C        -5.79416430922266   -2.09457225187692    0.41188244251099
H        -1.79385925223192   -1.72374782058664   -2.58910440784090
H        -0.42085511327952   -1.80114098006087   -1.46405096468446
H        -1.71195546361726   -0.61952017965954   -1.21284641219595
H        -2.23075462822492   -4.17616913072115   -2.22573580882096
H        -2.42473767770905   -4.80596619395966   -0.58034995317613
H        -0.84057970953423   -4.22972925857760   -1.12257754803108
H        -2.97244527114198   -0.12843909997967    0.62823327387354
H        -4.55853070407531    0.09276226333514    1.36580716359469
H        -4.38117707008587    0.16335817305501   -0.40069478690472
H        -6.23985029846345   -1.62156714591751   -0.46686450047940
H        -6.24978650416492   -1.67613837574452    1.30627541437505
H        -5.99042661107831   -3.16507229625439    0.38200688588278
Li       -4.62662129161067   -2.79841230553696   -2.20601397733978
22
 energy: -23.194349529099 gnorm: 0.002429996115 xtb: 6.4.1 (afa7bdf)
N        -3.70456875298908   -2.45688583063017   -0.76192870333200
C        -2.27968740313038   -2.65423726204506   -0.70023854908599
C        -4.28505385282349   -1.84797863289792    0.40253625299406
C        -1.49137877077209   -1.63476919102382   -1.54422885167759
C        -1.91476026067174   -4.06372416610565   -1.18354640279185
H        -1.93335153249047   -2.56109470937004    0.34656834100645
C        -4.03765948526482   -0.32819231193454    0.50603991348894
H        -3.86077839972501   -2.30558244712096    1.32207236532480
C        -5.79257543489582   -2.09997361366321    0.41509791336359
H        -1.77867784648933   -1.73903600938713   -2.59212100928141
H        -0.41861118703201   -1.79755734416133   -1.45097443747524
H        -1.72006847056619   -0.62217725085982   -1.22468628832766
H        -2.23388540422449   -4.18088380922688   -2.22153621631882
H        -2.42429057162676   -4.80592620337066   -0.57431252294886
H        -0.84146537271710   -4.23065989346104   -1.12115675183449
H        -2.97547453291074   -0.12672629787735    0.61819725281663
H        -4.55690505979016    0.08999244384041    1.36690371308505
H        -4.39210030142748    0.16124644002898   -0.40088743571587
H        -6.24164090161818   -1.62880428535648   -0.46288208821681
H        -6.24583131308020   -1.68157295003815    1.31039281052249
H        -5.98517588622419   -3.17068356528615    0.38701249495105
Li       -4.62896177823027   -2.74338669015299   -2.21347041504643
22
 energy: -23.194369779976 gnorm: 0.001162083321 xtb: 6.4.1 (afa7bdf)
N        -3.70353838067705   -2.45456838294275   -0.76373346192430
C        -2.27978744567465   -2.65354802597665   -0.70106918530448
C        -4.28418018051868   -1.84875627927707    0.40130185378716
C        -1.48783089828857   -1.63769920997132   -1.54667244124282
C        -1.91691726041278   -4.06512370996579   -1.18092316610928
H        -1.93428565171182   -2.55812383604958    0.34610732137577
C        -4.04118950338920   -0.32778825988278    0.50621559304907
H        -3.85619746618240   -2.30605898254218    1.32010683069864
C        -5.79091481946547   -2.10515554507773    0.41638083861559
H        -1.76685512131886   -1.75092935284529   -2.59553778857961
H        -0.41613861429950   -1.79826604644007   -1.44368351708268
H        -1.72140194977094   -0.62374105353093   -1.23623125528308
H        -2.23914486989506   -4.18360742889243   -2.21738394842942
H        -2.42641332825009   -4.80412926915211   -0.56841756902557
H        -0.84389759618787   -4.23252061908599   -1.12039409737258
H        -2.97937251306546   -0.12341779457152    0.61403685594619
H        -4.55867620857568    0.08666890840088    1.36952972833925
H        -4.40106906085339    0.16073441332182   -0.39896685217732
H        -6.24118632804930   -1.63645026247797   -0.46208309356391
H        -6.24372560375280   -1.68654042795095    1.31143803438255
H        -5.97982322892156   -3.17616740215628    0.38999471283722
Li       -4.63035648943889   -2.70342501303329   -2.21716400743640
22
 energy: -23.194379693208 gnorm: 0.000754530460 xtb: 6.4.1 (afa7bdf)
N        -3.70148751248137   -2.45055182641394   -0.76463825295532
C        -2.27909689844343   -2.65189654327068   -0.70173942296879
C        -4.28311310495358   -1.84910637888162    0.40092936484047
C        -1.48398868167416   -1.64011184724595   -1.55041767913083
C        -1.91950316950469   -4.06606523808865   -1.17854143019547
H        -1.93178406809605   -2.55422511715389    0.34488066302041
C        -4.04491689526080   -0.32660340664798    0.50862060282808
H        -3.85366263569717   -2.30608391049633    1.32005419835946
C        -5.78926492778625   -2.10963630814423    0.41601120760190
H        -1.75920103713299   -1.75907503784365   -2.59921072328270
H        -0.41328840950355   -1.80132849429986   -1.44216437620907
H        -1.71805858574279   -0.62451584262643   -1.24598787241714
H        -2.24528177667752   -4.18594964317141   -2.21345435098265
H        -2.42950470203427   -4.80178920976653   -0.56269957070278
H        -0.84681692003169   -4.23539264987852   -1.12023593421991
H        -2.98360903738279   -0.11910371519398    0.61477362161281
H        -4.56271938289909    0.08368959287402    1.37349061221256
H        -4.40798360331429    0.16177055406144   -0.39531624605536
H        -6.23918401885103   -1.64341450670607   -0.46378808179403
H        -6.24382945201346   -1.69071368694212    1.30985326030933
H        -5.97504528306374   -3.18109653622608    0.39088829151618
Li       -4.63156241615532   -2.67741382803752   -2.21845649588713
22
 energy: -23.194384320276 gnorm: 0.000631841792 xtb: 6.4.1 (afa7bdf)
N        -3.69992708455461   -2.44696513874598   -0.76519102149449
C        -2.27795731572095   -2.65056568310402   -0.70216703442551
C        -4.28270471550862   -1.84853070206507    0.40119700862445
C        -1.48205004357048   -1.64097872852794   -1.55287904592625
C        -1.92092675419308   -4.06614404216415   -1.17732722654006
H        -1.92929985674697   -2.55202780836494    0.34387381056371
C        -4.04655804774177   -0.32570833057428    0.51123404503345
H        -3.85361051269733   -2.30599509132962    1.32010240155003
C        -5.78862631933464   -2.11116993479953    0.41460615747049
H        -1.75842252976470   -1.76040760155593   -2.60128107608997
H        -0.41138371010262   -1.80366347057006   -1.44549857705677
H        -1.71412473646118   -0.62459549728382   -1.24885329071237
H        -2.24817989350386   -4.18748627559713   -2.21162902482094
H        -2.43136994305043   -4.80026027543560   -0.55974496299154
H        -0.84841405875664   -4.23739476394149   -1.12002539653337
H        -2.98542124623397   -0.11692883551441    0.61784669910484
H        -4.56506631556124    0.08273358572781    1.37665700419445
H        -4.41001973495435    0.16366290063350   -0.39205458835075
H        -6.23831349478283   -1.64609407760622   -0.46605311764737
H        -6.24527438696350   -1.69260995727157    1.30767065770249
H        -5.97308684664509   -3.18297871491506    0.38965183822554
Li       -4.63216497185117   -2.67450513709446   -2.21728387438005
