      -----------------------------------------------------------      
     |                   =====================                   |     
     |                           x T B                           |     
     |                   =====================                   |     
     |                         S. Grimme                         |     
     |          Mulliken Center for Theoretical Chemistry        |     
     |                    University of Bonn                     |     
      -----------------------------------------------------------      

   * xtb version 6.4.1 (afa7bdf) compiled by 'ehlert@majestix' on 2021-06-10

   xtb is free software: you can redistribute it and/or modify it under
   the terms of the GNU Lesser General Public License as published by
   the Free Software Foundation, either version 3 of the License, or
   (at your option) any later version.
   
   xtb is distributed in the hope that it will be useful,
   but WITHOUT ANY WARRANTY; without even the implied warranty of
   MERCHANTABILITY or FITNESS FOR A PARTICULAR PURPOSE.  See the
   GNU Lesser General Public License for more details.
   
   Cite this work as:
   * C. Bannwarth, E. Caldeweyher, S. Ehlert, A. Hansen, P. Pracht,
     J. Seibert, S. Spicher, S. Grimme, WIREs Comput. Mol. Sci., 2020, 11,
     e01493. DOI: 10.1002/wcms.1493
   
   for GFN2-xTB:
   * C. Bannwarth, S. Ehlert and S. Grimme., J. Chem. Theory Comput., 2019,
     15, 1652-1671. DOI: 10.1021/acs.jctc.8b01176
   for GFN1-xTB:
   * S. Grimme, C. Bannwarth, P. Shushkov, J. Chem. Theory Comput., 2017,
     13, 1989-2009. DOI: 10.1021/acs.jctc.7b00118
   for GFN0-xTB:
   * P. Pracht, E. Caldeweyher, S. Ehlert, S. Grimme, ChemRxiv, 2019, preprint.
     DOI: 10.26434/chemrxiv.8326202.v1
   for GFN-FF:
   * S. Spicher and S. Grimme, Angew. Chem. Int. Ed., 2020, 59, 15665-15673.
     DOI: 10.1002/anie.202004239
   
   for DFT-D4:
   * E. Caldeweyher, C. Bannwarth and S. Grimme, J. Chem. Phys., 2017,
     147, 034112. DOI: 10.1063/1.4993215
   * E. Caldeweyher, S. Ehlert, A. Hansen, H. Neugebauer, S. Spicher,
     C. Bannwarth and S. Grimme, J. Chem. Phys., 2019, 150, 154122.
     DOI: 10.1063/1.5090222
   * E. Caldeweyher, J.-M. Mewes, S. Ehlert and S. Grimme, Phys. Chem. Chem. Phys.
     2020, 22, 8499-8512. DOI: 10.1039/D0CP00502A
   
   for sTDA-xTB:
   * S. Grimme and C. Bannwarth, J. Chem. Phys., 2016, 145, 054103.
     DOI: 10.1063/1.4959605
   
   in the mass-spec context:
   * V. Asgeirsson, C. Bauer and S. Grimme, Chem. Sci., 2017, 8, 4879.
     DOI: 10.1039/c7sc00601b
   * J. Koopman and S. Grimme, ACS Omega 2019, 4, 12, 15120-15133.
     DOI: 10.1021/acsomega.9b02011
   
   for metadynamics refer to:
   * S. Grimme, J. Chem. Theory Comput., 2019, 155, 2847-2862
     DOI: 10.1021/acs.jctc.9b00143
   
   for SPH calculations refer to:
   * S. Spicher and S. Grimme, J. Chem. Theory Comput., 2021, 17, 1701-1714
     DOI: 10.1021/acs.jctc.0c01306
   
   with help from (in alphabetical order)
   P. Atkinson, C. Bannwarth, F. Bohle, G. Brandenburg, E. Caldeweyher
   M. Checinski, S. Dohm, S. Ehlert, S. Ehrlich, I. Gerasimov, J. Koopman
   C. Lavigne, S. Lehtola, F. März, M. Müller, F. Musil, H. Neugebauer
   J. Pisarek, C. Plett, P. Pracht, J. Seibert, P. Shushkov, S. Spicher
   M. Stahn, M. Steiner, T. Strunk, J. Stückrath, T. Rose, and J. Unsleber
   
 * started run on 2022/02/25 at 08:10:34.430     

           -------------------------------------------------
          |                Calculation Setup                |
           -------------------------------------------------

          program call               : xtb Li-Aldol.xyz --opt --alpb thf
          hostname                   : clu
          coordinate file            : Li-Aldol.xyz
          omp threads                :                     4
          number of atoms            :                    39
          number of electrons        :                   118
          charge                     :                     0
          spin                       :                   0.0
          first test random number   :      0.07792630681011

   ID    Z sym.   atoms
    1    6 C      1-6, 11, 13, 17, 19, 23-29, 32
    2    1 H      7-10, 14-16, 20, 33-39
    3    8 O      12, 18, 21, 30, 31
    4    3 Li     22

           -------------------------------------------------
          |                 G F N 2 - x T B                 |
           -------------------------------------------------

        Reference                      10.1021/acs.jctc.8b01176
      * Hamiltonian:
        H0-scaling (s, p, d)           1.850000    2.230000    2.230000
        zeta-weighting                 0.500000
      * Dispersion:
        s8                             2.700000
        a1                             0.520000
        a2                             5.000000
        s9                             5.000000
      * Repulsion:
        kExp                           1.500000    1.000000
        rExp                           1.000000
      * Coulomb:
        alpha                          2.000000
        third order                    shell-resolved
        anisotropic                    true
        a3                             3.000000
        a5                             4.000000
        cn-shift                       1.200000
        cn-exp                         4.000000
        max-rad                        5.000000

      * Solvation model:               ALPB
        Solvent                        thf
        Parameter file                 internal GFN2-xTB/ALPB
        Dielectric constant                7.6000E+00
        Reference state                gsolv [1 M gas/solution]
        Free energy shift                  5.3248E-03 Eh       3.3414E+00 kcal/mol
        Temperature                        2.9815E+02 K
        Density                            8.8300E-01 kg/L
        Solvent mass                       7.2106E+01 g/mol
        Interaction kernel             P16
        Born radius scaling (c1)           1.7311E+00
        Born radii integrator          GBOBC
        Born offset                        0.0000E+00 a0       0.0000E+00 AA
        H-bond correction              true
        Ion screening                  false
        Surface tension                    1.0000E-05 Eh       1.5569E+01 dyn/cm
        Grid points                               230 per atom

          ...................................................
          :                      SETUP                      :
          :.................................................:
          :  # basis functions                 111          :
          :  # atomic orbitals                 111          :
          :  # shells                           63          :
          :  # electrons                       118          :
          :  max. iterations                   250          :
          :  Hamiltonian                  GFN2-xTB          :
          :  restarted?                      false          :
          :  GBSA solvation                   true          :
          :  PC potential                    false          :
          :  electronic temp.          300.0000000     K    :
          :  accuracy                    1.0000000          :
          :  -> integral cutoff          0.2500000E+02      :
          :  -> integral neglect         0.1000000E-07      :
          :  -> SCF convergence          0.1000000E-05 Eh   :
          :  -> wf. convergence          0.1000000E-03 e    :
          :  Broyden damping             0.4000000          :
          ...................................................

 iter      E             dE          RMSdq      gap      omega  full diag
   1    -67.5575856 -0.675576E+02  0.522E+00    2.28       0.0  T
   2    -67.6824927 -0.124907E+00  0.275E+00    2.18       1.0  T
   3    -67.6798428  0.264989E-02  0.130E+00    2.21       1.0  T
   4    -67.6947518 -0.149089E-01  0.373E-01    2.06       1.0  T
   5    -67.6965071 -0.175529E-02  0.174E-01    2.14       1.0  T
   6    -67.6965884 -0.812913E-04  0.105E-01    2.14       1.0  T
   7    -67.6966503 -0.618945E-04  0.199E-02    2.14       1.0  T
   8    -67.6966608 -0.105338E-04  0.795E-03    2.14       2.0  T
   9    -67.6966616 -0.813844E-06  0.504E-03    2.14       3.2  T
  10    -67.6966617 -0.129329E-06  0.237E-03    2.14       6.8  T
  11    -67.6966618 -0.523398E-07  0.953E-04    2.14      16.8  T
  12    -67.6966618 -0.169237E-07  0.314E-04    2.14      51.1  T

   *** convergence criteria satisfied after 12 iterations ***

         #    Occupation            Energy/Eh            Energy/eV
      -------------------------------------------------------------
         1        2.0000           -0.7421892             -20.1960
       ...           ...                  ...                  ...
        53        2.0000           -0.4136118             -11.2550
        54        2.0000           -0.4115335             -11.1984
        55        2.0000           -0.4096091             -11.1460
        56        2.0000           -0.4005331             -10.8991
        57        2.0000           -0.3828738             -10.4185
        58        2.0000           -0.3720722             -10.1246
        59        2.0000           -0.3705385             -10.0829 (HOMO)
        60                         -0.2918107              -7.9406 (LUMO)
        61                         -0.2678084              -7.2874
        62                         -0.2375829              -6.4650
        63                         -0.2265906              -6.1658
        64                         -0.2239276              -6.0934
       ...                                ...                  ...
       111                          0.6842509              18.6194
      -------------------------------------------------------------
                  HL-Gap            0.0787278 Eh            2.1423 eV
             Fermi-level           -0.3311746 Eh           -9.0117 eV

 SCC (total)                   0 d,  0 h,  0 min,  0.116 sec
 SCC setup                      ...        0 min,  0.002 sec (  1.345%)
 Dispersion                     ...        0 min,  0.001 sec (  1.047%)
 classical contributions        ...        0 min,  0.000 sec (  0.096%)
 integral evaluation            ...        0 min,  0.007 sec (  6.229%)
 iterations                     ...        0 min,  0.088 sec ( 75.991%)
 molecular gradient             ...        0 min,  0.017 sec ( 14.709%)
 printout                       ...        0 min,  0.001 sec (  0.531%)

         :::::::::::::::::::::::::::::::::::::::::::::::::::::
         ::                     SUMMARY                     ::
         :::::::::::::::::::::::::::::::::::::::::::::::::::::
         :: total energy             -66.853652571027 Eh    ::
         :: total w/o Gsasa/hb       -66.817824030083 Eh    ::
         :: gradient norm              0.149812489930 Eh/a0 ::
         :: HOMO-LUMO gap              2.142292335410 eV    ::
         ::.................................................::
         :: SCC energy               -67.696661812552 Eh    ::
         :: -> isotropic ES            0.170996294014 Eh    ::
         :: -> anisotropic ES          0.008818698090 Eh    ::
         :: -> anisotropic XC          0.018173067024 Eh    ::
         :: -> dispersion             -0.039032778460 Eh    ::
         :: -> Gsolv                  -0.052409071442 Eh    ::
         ::    -> Gelec               -0.016580530498 Eh    ::
         ::    -> Gsasa               -0.039527128889 Eh    ::
         ::    -> Ghb                 -0.001626227499 Eh    ::
         ::    -> Gshift               0.005324815444 Eh    ::
         :: repulsion energy           0.843503491549 Eh    ::
         :: add. restraining           0.000000000000 Eh    ::
         :: total charge               0.000000000000 e     ::
         :::::::::::::::::::::::::::::::::::::::::::::::::::::

      ----------------------------------------------------------- 
     |                   =====================                   |
     |                        A N C O P T                        |
     |                   =====================                   |
     |               Approximate Normal Coordinate               |
     |                Rational Function Optimizer                |
      ----------------------------------------------------------- 

          ...................................................
          :                      SETUP                      :
          :.................................................:
          :   optimization level            normal          :
          :   max. optcycles                   200          :
          :   ANC micro-cycles                  20          :
          :   degrees of freedom               111          :
          :.................................................:
          :   RF solver                   davidson          :
          :   write xtbopt.log                true          :
          :   linear?                        false          :
          :   energy convergence         0.5000000E-05 Eh   :
          :   grad. convergence          0.1000000E-02 Eh/α :
          :   maximium RF displ.         1.0000000          :
          :   Hlow (freq-cutoff)         0.1000000E-01      :
          :   Hmax (freq-cutoff)         5.0000000          :
          :   S6 in model hess.         20.0000000          :
          ...................................................

generating ANC from model Hessian ...
Using Lindh-Hessian (1995)
 Shifting diagonal of input Hessian by   9.835939720565862E-003
 Lowest  eigenvalues of input Hessian
    0.000000    0.000000    0.000000    0.000000    0.000000    0.000000
    0.010000    0.010241    0.010387    0.010625    0.011342    0.012212
    0.012483    0.013063    0.014298    0.014887    0.015568    0.016375
 Highest eigenvalues
    1.932612    1.944603    1.971990    2.068793    2.141922    2.212085
 

........................................................................
.............................. CYCLE    1 ..............................
........................................................................
   1    -67.6966618 -0.676967E+02  0.173E-04    2.14       0.0  T
   2    -67.6966618 -0.199151E-09  0.111E-04    2.14     144.3  T
   3    -67.6966618 -0.813429E-10  0.763E-05    2.14     209.8  T
     SCC iter.                  ...        0 min,  0.024 sec
     gradient                   ...        0 min,  0.017 sec
 * total energy  :   -66.8536526 Eh     change       -0.7734826E-09 Eh
   gradient norm :     0.1498133 Eh/α   predicted     0.0000000E+00 (-100.00%)
   displ. norm   :     0.3711813 α      lambda       -0.2617506E-01
   maximum displ.:     0.1653890 α      in ANC's #29, #13, #30, ...

........................................................................
.............................. CYCLE    2 ..............................
........................................................................
   1    -67.7423509 -0.677424E+02  0.434E-01    2.18       0.0  T
   2    -67.7441256 -0.177470E-02  0.241E-01    2.18       1.0  T
   3    -67.7445145 -0.388947E-03  0.145E-01    2.20       1.0  T
   4    -67.7447228 -0.208223E-03  0.460E-02    2.19       1.0  T
   5    -67.7447558 -0.330500E-04  0.146E-02    2.19       1.1  T
   6    -67.7447569 -0.113589E-05  0.951E-03    2.19       1.7  T
   7    -67.7447575 -0.587478E-06  0.168E-03    2.19       9.5  T
   8    -67.7447576 -0.264562E-07  0.903E-04    2.19      17.7  T
   9    -67.7447576 -0.953915E-08  0.367E-04    2.19      43.6  T
     SCC iter.                  ...        0 min,  0.065 sec
     gradient                   ...        0 min,  0.017 sec
 * total energy  :   -66.8736978 Eh     change       -0.2004522E-01 Eh
   gradient norm :     0.0802774 Eh/α   predicted    -0.1491162E-01 ( -25.61%)
   displ. norm   :     0.4770769 α      lambda       -0.1707700E-01
   maximum displ.:     0.2207938 α      in ANC's #29, #13, #15, ...

........................................................................
.............................. CYCLE    3 ..............................
........................................................................
   1    -67.7812497 -0.677812E+02  0.542E-01    2.23       0.0  T
   2    -67.7840024 -0.275264E-02  0.293E-01    2.24       1.0  T
   3    -67.7844290 -0.426618E-03  0.182E-01    2.26       1.0  T
   4    -67.7847343 -0.305262E-03  0.546E-02    2.25       1.0  T
   5    -67.7847824 -0.480856E-04  0.149E-02    2.25       1.1  T
   6    -67.7847836 -0.125271E-05  0.972E-03    2.25       1.6  T
   7    -67.7847845 -0.852788E-06  0.182E-03    2.25       8.8  T
   8    -67.7847845 -0.191309E-07  0.917E-04    2.25      17.5  T
   9    -67.7847845 -0.121938E-07  0.371E-04    2.25      43.1  T
     SCC iter.                  ...        0 min,  0.065 sec
     gradient                   ...        0 min,  0.017 sec
 * total energy  :   -66.8840502 Eh     change       -0.1035243E-01 Eh
   gradient norm :     0.0205665 Eh/α   predicted    -0.1048189E-01 (   1.25%)
   displ. norm   :     0.3308054 α      lambda       -0.2994196E-02
   maximum displ.:     0.2079099 α      in ANC's #13, #15, #23, ...

........................................................................
.............................. CYCLE    4 ..............................
........................................................................
   1    -67.7927915 -0.677928E+02  0.193E-01    2.26       0.0  T
   2    -67.7928571 -0.656671E-04  0.117E-01    2.26       1.0  T
   3    -67.7928190  0.381771E-04  0.528E-02    2.26       1.0  T
   4    -67.7928675 -0.485506E-04  0.113E-02    2.26       1.4  T
   5    -67.7928714 -0.384131E-05  0.390E-03    2.26       4.1  T
   6    -67.7928714 -0.175569E-07  0.211E-03    2.26       7.6  T
   7    -67.7928715 -0.746230E-07  0.455E-04    2.26      35.2  T
   8    -67.7928715 -0.107232E-08  0.222E-04    2.26      72.0  T
     SCC iter.                  ...        0 min,  0.058 sec
     gradient                   ...        0 min,  0.017 sec
 * total energy  :   -66.8860384 Eh     change       -0.1988224E-02 Eh
   gradient norm :     0.0149506 Eh/α   predicted    -0.1661144E-02 ( -16.45%)
   displ. norm   :     0.2689929 α      lambda       -0.1210349E-02
   maximum displ.:     0.1842069 α      in ANC's #13, #15, #2, ...

........................................................................
.............................. CYCLE    5 ..............................
........................................................................
   1    -67.7949357 -0.677949E+02  0.893E-02    2.25       0.0  T
   2    -67.7949594 -0.236734E-04  0.570E-02    2.26       1.0  T
   3    -67.7949513  0.810463E-05  0.287E-02    2.25       1.0  T
   4    -67.7949671 -0.157924E-04  0.788E-03    2.25       2.0  T
   5    -67.7949676 -0.533124E-06  0.360E-03    2.25       4.4  T
   6    -67.7949676  0.266949E-08  0.176E-03    2.25       9.1  T
   7    -67.7949677 -0.638689E-07  0.435E-04    2.25      36.8  T
   8    -67.7949677 -0.118291E-08  0.116E-04    2.25     138.6  T
     SCC iter.                  ...        0 min,  0.058 sec
     gradient                   ...        0 min,  0.017 sec
 * total energy  :   -66.8867809 Eh     change       -0.7424869E-03 Eh
   gradient norm :     0.0063850 Eh/α   predicted    -0.6489641E-03 ( -12.60%)
   displ. norm   :     0.1457524 α      lambda       -0.2305275E-03
   maximum displ.:     0.0839396 α      in ANC's #2, #13, #15, ...

........................................................................
.............................. CYCLE    6 ..............................
........................................................................
   1    -67.7979928 -0.677980E+02  0.354E-02    2.25       0.0  T
   2    -67.7979962 -0.341464E-05  0.208E-02    2.25       1.0  T
   3    -67.7979951  0.105748E-05  0.915E-03    2.25       1.8  T
   4    -67.7979968 -0.162565E-05  0.245E-03    2.25       6.5  T
   5    -67.7979969 -0.131062E-06  0.966E-04    2.25      16.6  T
   6    -67.7979969 -0.828535E-09  0.503E-04    2.25      31.8  T
     SCC iter.                  ...        0 min,  0.046 sec
     gradient                   ...        0 min,  0.017 sec
 * total energy  :   -66.8869392 Eh     change       -0.1582959E-03 Eh
   gradient norm :     0.0035787 Eh/α   predicted    -0.1177223E-03 ( -25.63%)
   displ. norm   :     0.1185587 α      lambda       -0.1049015E-03
   maximum displ.:     0.0934944 α      in ANC's #2, #6, #13, ...

........................................................................
.............................. CYCLE    7 ..............................
........................................................................
   1    -67.7999113 -0.677999E+02  0.253E-02    2.25       0.0  T
   2    -67.7999129 -0.154884E-05  0.140E-02    2.25       1.1  T
   3    -67.7999125  0.389248E-06  0.575E-03    2.25       2.8  T
   4    -67.7999131 -0.570131E-06  0.135E-03    2.25      11.8  T
   5    -67.7999131 -0.571759E-07  0.463E-04    2.25      34.6  T
   6    -67.7999131 -0.861164E-09  0.268E-04    2.25      59.9  T
     SCC iter.                  ...        0 min,  0.045 sec
     gradient                   ...        0 min,  0.017 sec
 * total energy  :   -66.8870156 Eh     change       -0.7640293E-04 Eh
   gradient norm :     0.0017618 Eh/α   predicted    -0.5320747E-04 ( -30.36%)
   displ. norm   :     0.1402281 α      lambda       -0.5672982E-04
   maximum displ.:     0.1217817 α      in ANC's #2, #6, #3, ...

........................................................................
.............................. CYCLE    8 ..............................
........................................................................
   1    -67.8006401 -0.678006E+02  0.286E-02    2.25       0.0  T
   2    -67.8006407 -0.615804E-06  0.165E-02    2.25       1.0  T
   3    -67.8006403  0.335100E-06  0.408E-03    2.25       3.9  T
   4    -67.8006408 -0.433702E-06  0.944E-04    2.25      17.0  T
   5    -67.8006408 -0.165829E-07  0.465E-04    2.25      34.5  T
     SCC iter.                  ...        0 min,  0.038 sec
     gradient                   ...        0 min,  0.017 sec
 * total energy  :   -66.8870782 Eh     change       -0.6259242E-04 Eh
   gradient norm :     0.0024314 Eh/α   predicted    -0.2861394E-04 ( -54.29%)
   displ. norm   :     0.0644859 α      lambda       -0.3610901E-04
   maximum displ.:     0.0566553 α      in ANC's #2, #3, #6, ...

........................................................................
.............................. CYCLE    9 ..............................
........................................................................
   1    -67.8002348 -0.678002E+02  0.125E-02    2.25       0.0  T
   2    -67.8002349 -0.124848E-06  0.736E-03    2.25       2.2  T
   3    -67.8002348  0.109228E-06  0.213E-03    2.25       7.5  T
   4    -67.8002350 -0.138661E-06  0.459E-04    2.25      34.9  T
   5    -67.8002350 -0.335734E-08  0.259E-04    2.25      61.9  T
     SCC iter.                  ...        0 min,  0.038 sec
     gradient                   ...        0 min,  0.017 sec
 * total energy  :   -66.8871101 Eh     change       -0.3184389E-04 Eh
   gradient norm :     0.0020843 Eh/α   predicted    -0.1813075E-04 ( -43.06%)
   displ. norm   :     0.0786276 α      lambda       -0.4303455E-04
   maximum displ.:     0.0660974 α      in ANC's #2, #3, #13, ...

........................................................................
.............................. CYCLE   10 ..............................
........................................................................
   1    -67.7994471 -0.677994E+02  0.162E-02    2.25       0.0  T
   2    -67.7994476 -0.441545E-06  0.931E-03    2.25       1.7  T
   3    -67.7994474  0.190808E-06  0.342E-03    2.25       4.7  T
   4    -67.7994476 -0.261018E-06  0.740E-04    2.25      21.6  T
   5    -67.7994476 -0.153182E-07  0.319E-04    2.25      50.2  T
     SCC iter.                  ...        0 min,  0.037 sec
     gradient                   ...        0 min,  0.017 sec
 * total energy  :   -66.8871460 Eh     change       -0.3594629E-04 Eh
   gradient norm :     0.0012150 Eh/α   predicted    -0.2165065E-04 ( -39.77%)
   displ. norm   :     0.1270806 α      lambda       -0.3650281E-04
   maximum displ.:     0.1071495 α      in ANC's #2, #3, #7, ...

........................................................................
.............................. CYCLE   11 ..............................
........................................................................
   1    -67.7987547 -0.677988E+02  0.261E-02    2.26       0.0  T
   2    -67.7987554 -0.736682E-06  0.151E-02    2.25       1.1  T
   3    -67.7987550  0.464297E-06  0.468E-03    2.26       3.4  T
   4    -67.7987556 -0.594003E-06  0.982E-04    2.25      16.3  T
   5    -67.7987556 -0.268665E-07  0.427E-04    2.25      37.5  T
     SCC iter.                  ...        0 min,  0.044 sec
     gradient                   ...        0 min,  0.018 sec
 * total energy  :   -66.8871912 Eh     change       -0.4523010E-04 Eh
   gradient norm :     0.0014087 Eh/α   predicted    -0.1838404E-04 ( -59.35%)
   displ. norm   :     0.1114898 α      lambda       -0.2764743E-04
   maximum displ.:     0.0911070 α      in ANC's #2, #3, #7, ...

........................................................................
.............................. CYCLE   12 ..............................
........................................................................
   1    -67.7989051 -0.677989E+02  0.241E-02    2.26       0.0  T
   2    -67.7989052 -0.971267E-07  0.142E-02    2.25       1.1  T
   3    -67.7989051  0.780348E-07  0.178E-03    2.26       9.0  T
   4    -67.7989052 -0.113528E-06  0.514E-04    2.25      31.1  T
   5    -67.7989052 -0.182415E-08  0.274E-04    2.25      58.4  T
     SCC iter.                  ...        0 min,  0.038 sec
     gradient                   ...        0 min,  0.017 sec
 * total energy  :   -66.8872295 Eh     change       -0.3823674E-04 Eh
   gradient norm :     0.0016642 Eh/α   predicted    -0.1390083E-04 ( -63.65%)
   displ. norm   :     0.1404149 α      lambda       -0.3368095E-04
   maximum displ.:     0.1087124 α      in ANC's #2, #3, #6, ...

........................................................................
.............................. CYCLE   13 ..............................
........................................................................
   1    -67.7994651 -0.677995E+02  0.325E-02    2.26       0.0  T
   2    -67.7994652 -0.119686E-06  0.191E-02    2.26       1.0  T
   3    -67.7994651  0.958498E-07  0.196E-03    2.26       8.1  T
   4    -67.7994653 -0.147796E-06  0.613E-04    2.26      26.1  T
   5    -67.7994653 -0.240809E-08  0.319E-04    2.26      50.2  T
     SCC iter.                  ...        0 min,  0.037 sec
     gradient                   ...        0 min,  0.017 sec
 * total energy  :   -66.8872743 Eh     change       -0.4476815E-04 Eh
   gradient norm :     0.0013051 Eh/α   predicted    -0.1698906E-04 ( -62.05%)
   displ. norm   :     0.1941413 α      lambda       -0.4054355E-04
   maximum displ.:     0.1457314 α      in ANC's #2, #3, #6, ...

........................................................................
.............................. CYCLE   14 ..............................
........................................................................
   1    -67.7999702 -0.678000E+02  0.487E-02    2.25       0.0  T
   2    -67.7999705 -0.270817E-06  0.287E-02    2.25       1.0  T
   3    -67.7999703  0.161781E-06  0.262E-03    2.25       6.1  T
   4    -67.7999706 -0.257082E-06  0.873E-04    2.25      18.3  T
   5    -67.7999706 -0.844443E-08  0.466E-04    2.25      34.4  T
     SCC iter.                  ...        0 min,  0.039 sec
     gradient                   ...        0 min,  0.017 sec
 * total energy  :   -66.8873216 Eh     change       -0.4739543E-04 Eh
   gradient norm :     0.0012586 Eh/α   predicted    -0.2061399E-04 ( -56.51%)
   displ. norm   :     0.2154121 α      lambda       -0.3610828E-04
   maximum displ.:     0.1583978 α      in ANC's #2, #3, #4, ...

........................................................................
.............................. CYCLE   15 ..............................
........................................................................
   1    -67.8001445 -0.678001E+02  0.550E-02    2.26       0.0  T
   2    -67.8001448 -0.289838E-06  0.324E-02    2.26       1.0  T
   3    -67.8001447  0.134445E-06  0.263E-03    2.26       6.1  T
   4    -67.8001449 -0.253120E-06  0.963E-04    2.26      16.6  T
   5    -67.8001449 -0.672065E-08  0.500E-04    2.26      32.0  T
     SCC iter.                  ...        0 min,  0.038 sec
     gradient                   ...        0 min,  0.017 sec
 * total energy  :   -66.8873649 Eh     change       -0.4330073E-04 Eh
   gradient norm :     0.0010367 Eh/α   predicted    -0.1842811E-04 ( -57.44%)
   displ. norm   :     0.2318286 α      lambda       -0.2829339E-04
   maximum displ.:     0.1671173 α      in ANC's #2, #3, #4, ...

........................................................................
.............................. CYCLE   16 ..............................
........................................................................
   1    -67.8002954 -0.678003E+02  0.612E-02    2.26       0.0  T
   2    -67.8002957 -0.272877E-06  0.360E-02    2.26       1.0  T
   3    -67.8002956  0.493420E-07  0.255E-03    2.26       6.3  T
   4    -67.8002958 -0.181813E-06  0.993E-04    2.26      16.1  T
   5    -67.8002958 -0.154947E-08  0.450E-04    2.26      35.6  T
     SCC iter.                  ...        0 min,  0.037 sec
     gradient                   ...        0 min,  0.017 sec
 * total energy  :   -66.8874009 Eh     change       -0.3595240E-04 Eh
   gradient norm :     0.0011418 Eh/α   predicted    -0.1448544E-04 ( -59.71%)
   displ. norm   :     0.3448037 α      lambda       -0.3363561E-04
   maximum displ.:     0.2431853 α      in ANC's #2, #3, #4, ...

........................................................................
.............................. CYCLE   17 ..............................
........................................................................
   1    -67.7998523 -0.677999E+02  0.940E-02    2.26       0.0  T
   2    -67.7998529 -0.659157E-06  0.553E-02    2.25       1.0  T
   3    -67.7998528  0.110844E-06  0.388E-03    2.26       4.1  T
   4    -67.7998532 -0.418764E-06  0.152E-03    2.25      10.5  T
   5    -67.7998532 -0.225513E-08  0.742E-04    2.25      21.6  T
   6    -67.7998532 -0.677728E-08  0.187E-04    2.25      85.8  T
     SCC iter.                  ...        0 min,  0.045 sec
     gradient                   ...        0 min,  0.017 sec
 * total energy  :   -66.8874380 Eh     change       -0.3710667E-04 Eh
   gradient norm :     0.0015195 Eh/α   predicted    -0.1770743E-04 ( -52.28%)
   displ. norm   :     0.3356935 α      lambda       -0.2279897E-04
   maximum displ.:     0.2287728 α      in ANC's #2, #3, #4, ...

........................................................................
.............................. CYCLE   18 ..............................
........................................................................
   1    -67.7998589 -0.677999E+02  0.944E-02    2.26       0.0  T
   2    -67.7998596 -0.693743E-06  0.555E-02    2.25       1.0  T
   3    -67.7998594  0.167154E-06  0.388E-03    2.26       4.1  T
   4    -67.7998599 -0.459619E-06  0.154E-03    2.25      10.4  T
   5    -67.7998599 -0.111893E-07  0.786E-04    2.25      20.4  T
   6    -67.7998599 -0.429381E-08  0.241E-04    2.25      66.6  T
     SCC iter.                  ...        0 min,  0.044 sec
     gradient                   ...        0 min,  0.017 sec
 * total energy  :   -66.8874601 Eh     change       -0.2213516E-04 Eh
   gradient norm :     0.0015285 Eh/α   predicted    -0.1197148E-04 ( -45.92%)
   displ. norm   :     0.2413672 α      lambda       -0.1584308E-04
   maximum displ.:     0.1512465 α      in ANC's #2, #3, #4, ...

........................................................................
.............................. CYCLE   19 ..............................
........................................................................
   1    -67.8004813 -0.678005E+02  0.719E-02    2.26       0.0  T
   2    -67.8004818 -0.488202E-06  0.422E-02    2.25       1.0  T
   3    -67.8004812  0.563664E-06  0.463E-03    2.26       3.5  T
   4    -67.8004820 -0.798156E-06  0.114E-03    2.26      14.0  T
   5    -67.8004820 -0.452164E-08  0.632E-04    2.26      25.3  T
   6    -67.8004820 -0.202134E-08  0.172E-04    2.26      93.0  T
     SCC iter.                  ...        0 min,  0.044 sec
     gradient                   ...        0 min,  0.017 sec
 * total energy  :   -66.8874777 Eh     change       -0.1754048E-04 Eh
   gradient norm :     0.0012238 Eh/α   predicted    -0.8128646E-05 ( -53.66%)
   displ. norm   :     0.2889286 α      lambda       -0.2291246E-04
   maximum displ.:     0.1663752 α      in ANC's #3, #2, #4, ...

........................................................................
.............................. CYCLE   20 ..............................
........................................................................
   1    -67.8009652 -0.678010E+02  0.943E-02    2.26       0.0  T
   2    -67.8009657 -0.451917E-06  0.554E-02    2.26       1.0  T
   3    -67.8009657  0.582908E-08  0.320E-03    2.26       5.0  T
   4    -67.8009659 -0.265253E-06  0.149E-03    2.26      10.8  T
   5    -67.8009659 -0.315852E-08  0.495E-04    2.26      32.4  T
   6    -67.8009659 -0.380288E-08  0.131E-04    2.26     122.0  T
     SCC iter.                  ...        0 min,  0.044 sec
     gradient                   ...        0 min,  0.017 sec
 * total energy  :   -66.8875114 Eh     change       -0.3367900E-04 Eh
   gradient norm :     0.0012456 Eh/α   predicted    -0.1188253E-04 ( -64.72%)
   displ. norm   :     0.3475562 α      lambda       -0.2833776E-04
   maximum displ.:     0.2068808 α      in ANC's #3, #2, #4, ...
 * RMSD in coord.:     0.5409086 α      energy gain  -0.3385879E-01 Eh

generating ANC from model Hessian ...
Using Lindh-Hessian (1995)
 Shifting diagonal of input Hessian by   9.810522462384568E-003
 Lowest  eigenvalues of input Hessian
    0.000000    0.000000    0.000000    0.000000    0.000000    0.000000
    0.010000    0.010177    0.010396    0.010724    0.011798    0.012037
    0.013066    0.013507    0.014536    0.015047    0.015497    0.017282
 Highest eigenvalues
    2.021863    2.065063    2.086598    2.126674    2.167857    2.273312
 

........................................................................
.............................. CYCLE   21 ..............................
........................................................................
   1    -67.7991962 -0.677992E+02  0.113E-01    2.26       0.0  T
   2    -67.7991971 -0.847450E-06  0.664E-02    2.26       1.0  T
   3    -67.7991967  0.372938E-06  0.468E-03    2.26       3.4  T
   4    -67.7991975 -0.787359E-06  0.176E-03    2.26       9.1  T
   5    -67.7991975 -0.157090E-07  0.894E-04    2.26      17.9  T
   6    -67.7991975 -0.346405E-08  0.241E-04    2.26      66.5  T
     SCC iter.                  ...        0 min,  0.046 sec
     gradient                   ...        0 min,  0.017 sec
 * total energy  :   -66.8875540 Eh     change       -0.4267452E-04 Eh
   gradient norm :     0.0026356 Eh/α   predicted     0.0000000E+00 (-100.00%)
   displ. norm   :     0.0448125 α      lambda       -0.3666171E-04
   maximum displ.:     0.0264107 α      in ANC's #2, #8, #4, ...

........................................................................
.............................. CYCLE   22 ..............................
........................................................................
   1    -67.8008230 -0.678008E+02  0.161E-02    2.26       0.0  T
   2    -67.8008231 -0.119301E-06  0.940E-03    2.26       1.7  T
   3    -67.8008230  0.861229E-07  0.207E-03    2.26       7.7  T
   4    -67.8008231 -0.117775E-06  0.412E-04    2.26      38.9  T
   5    -67.8008231 -0.483482E-09  0.239E-04    2.26      67.0  T
     SCC iter.                  ...        0 min,  0.038 sec
     gradient                   ...        0 min,  0.017 sec
 * total energy  :   -66.8875855 Eh     change       -0.3142808E-04 Eh
   gradient norm :     0.0009748 Eh/α   predicted    -0.1880831E-04 ( -40.15%)
   displ. norm   :     0.2299889 α      lambda       -0.8554058E-04
   maximum displ.:     0.1235459 α      in ANC's #2, #8, #4, ...

........................................................................
.............................. CYCLE   23 ..............................
........................................................................
   1    -67.8044568 -0.678045E+02  0.811E-02    2.27       0.0  T
   2    -67.8044578 -0.103463E-05  0.474E-02    2.27       1.0  T
   3    -67.8044573  0.495531E-06  0.545E-03    2.27       2.9  T
   4    -67.8044581 -0.826023E-06  0.171E-03    2.27       9.4  T
   5    -67.8044582 -0.488789E-08  0.959E-04    2.27      16.7  T
   6    -67.8044582 -0.607878E-08  0.313E-04    2.27      51.1  T
     SCC iter.                  ...        0 min,  0.044 sec
     gradient                   ...        0 min,  0.017 sec
 * total energy  :   -66.8876756 Eh     change       -0.9015717E-04 Eh
   gradient norm :     0.0041530 Eh/α   predicted    -0.4378556E-04 ( -51.43%)
   displ. norm   :     0.2233058 α      lambda       -0.9707325E-04
   maximum displ.:     0.1239482 α      in ANC's #8, #2, #4, ...

........................................................................
.............................. CYCLE   24 ..............................
........................................................................
   1    -67.8044754 -0.678045E+02  0.796E-02    2.28       0.0  T
   2    -67.8044759 -0.481902E-06  0.466E-02    2.28       1.0  T
   3    -67.8044755  0.371870E-06  0.460E-03    2.28       3.5  T
   4    -67.8044761 -0.625161E-06  0.162E-03    2.28       9.9  T
   5    -67.8044761 -0.874905E-09  0.709E-04    2.28      22.6  T
   6    -67.8044761 -0.430083E-08  0.153E-04    2.28     104.3  T
     SCC iter.                  ...        0 min,  0.044 sec
     gradient                   ...        0 min,  0.017 sec
 * total energy  :   -66.8877659 Eh     change       -0.9029599E-04 Eh
   gradient norm :     0.0046131 Eh/α   predicted    -0.5095750E-04 ( -43.57%)
   displ. norm   :     0.5572258 α      lambda       -0.2459456E-03
   maximum displ.:     0.3032169 α      in ANC's #8, #2, #4, ...

........................................................................
.............................. CYCLE   25 ..............................
........................................................................
   1    -67.8005967 -0.678006E+02  0.200E-01    2.28       0.0  T
   2    -67.8006006 -0.388840E-05  0.117E-01    2.29       1.0  T
   3    -67.8005951  0.547594E-05  0.153E-02    2.28       1.0  T
   4    -67.8006026 -0.751226E-05  0.430E-03    2.29       3.7  T
   5    -67.8006026 -0.838682E-09  0.209E-03    2.29       7.7  T
   6    -67.8006027 -0.248836E-07  0.530E-04    2.29      30.2  T
   7    -67.8006027 -0.563605E-08  0.183E-04    2.29      87.7  T
     SCC iter.                  ...        0 min,  0.052 sec
     gradient                   ...        0 min,  0.017 sec
 * total energy  :   -66.8879536 Eh     change       -0.1876992E-03 Eh
   gradient norm :     0.0050354 Eh/α   predicted    -0.1611720E-03 ( -14.13%)
   displ. norm   :     0.4259915 α      lambda       -0.1394813E-03
   maximum displ.:     0.2220394 α      in ANC's #8, #2, #4, ...

........................................................................
.............................. CYCLE   26 ..............................
........................................................................
   1    -67.7964473 -0.677964E+02  0.153E-01    2.29       0.0  T
   2    -67.7964495 -0.222608E-05  0.896E-02    2.29       1.0  T
   3    -67.7964464  0.305281E-05  0.109E-02    2.29       1.5  T
   4    -67.7964506 -0.415770E-05  0.336E-03    2.29       4.8  T
   5    -67.7964506 -0.121107E-07  0.159E-03    2.29      10.1  T
   6    -67.7964506 -0.738902E-08  0.493E-04    2.29      32.5  T
   7    -67.7964506 -0.508071E-08  0.136E-04    2.29     117.8  T
     SCC iter.                  ...        0 min,  0.051 sec
     gradient                   ...        0 min,  0.017 sec
 * total energy  :   -66.8880266 Eh     change       -0.7295438E-04 Eh
   gradient norm :     0.0071972 Eh/α   predicted    -0.8241881E-04 (  12.97%)
   displ. norm   :     0.1136894 α      lambda       -0.1333552E-03
   maximum displ.:     0.0565737 α      in ANC's #7, #3, #4, ...

........................................................................
.............................. CYCLE   27 ..............................
........................................................................
   1    -67.7978104 -0.677978E+02  0.452E-02    2.29       0.0  T
   2    -67.7978123 -0.192079E-05  0.263E-02    2.29       1.0  T
   3    -67.7978103  0.198356E-05  0.104E-02    2.30       1.5  T
   4    -67.7978130 -0.271834E-05  0.108E-03    2.30      14.9  T
   5    -67.7978130 -0.164701E-07  0.580E-04    2.30      27.6  T
   6    -67.7978131 -0.378070E-08  0.333E-04    2.30      48.1  T
     SCC iter.                  ...        0 min,  0.044 sec
     gradient                   ...        0 min,  0.017 sec
 * total energy  :   -66.8881319 Eh     change       -0.1053216E-03 Eh
   gradient norm :     0.0046424 Eh/α   predicted    -0.6754548E-04 ( -35.87%)
   displ. norm   :     0.3144321 α      lambda       -0.2238667E-03
   maximum displ.:     0.1616474 α      in ANC's #7, #3, #8, ...

........................................................................
.............................. CYCLE   28 ..............................
........................................................................
   1    -67.7992158 -0.677992E+02  0.121E-01    2.31       0.0  T
   2    -67.7992193 -0.342694E-05  0.710E-02    2.31       1.0  T
   3    -67.7992127  0.651076E-05  0.139E-02    2.31       1.1  T
   4    -67.7992206 -0.785258E-05  0.220E-03    2.31       7.3  T
   5    -67.7992207 -0.589205E-07  0.120E-03    2.31      13.3  T
   6    -67.7992207 -0.157634E-08  0.590E-04    2.31      27.1  T
   7    -67.7992207 -0.544453E-08  0.139E-04    2.31     115.1  T
     SCC iter.                  ...        0 min,  0.051 sec
     gradient                   ...        0 min,  0.017 sec
 * total energy  :   -66.8882934 Eh     change       -0.1615266E-03 Eh
   gradient norm :     0.0045996 Eh/α   predicted    -0.1230219E-03 ( -23.84%)
   displ. norm   :     0.3190782 α      lambda       -0.1739510E-03
   maximum displ.:     0.1649470 α      in ANC's #7, #3, #5, ...

........................................................................
.............................. CYCLE   29 ..............................
........................................................................
   1    -67.8001238 -0.678001E+02  0.130E-01    2.32       0.0  T
   2    -67.8001262 -0.243013E-05  0.764E-02    2.32       1.0  T
   3    -67.8001216  0.461159E-05  0.111E-02    2.32       1.4  T
   4    -67.8001272 -0.559483E-05  0.203E-03    2.32       7.9  T
   5    -67.8001272 -0.448115E-07  0.113E-03    2.32      14.1  T
   6    -67.8001272  0.157853E-08  0.496E-04    2.32      32.3  T
   7    -67.8001272 -0.556889E-08  0.967E-05    2.32     165.6  T
     SCC iter.                  ...        0 min,  0.051 sec
     gradient                   ...        0 min,  0.018 sec
 * total energy  :   -66.8884358 Eh     change       -0.1423595E-03 Eh
   gradient norm :     0.0048066 Eh/α   predicted    -0.9583353E-04 ( -32.68%)
   displ. norm   :     0.4931838 α      lambda       -0.2624823E-03
   maximum displ.:     0.2488382 α      in ANC's #7, #3, #5, ...

........................................................................
.............................. CYCLE   30 ..............................
........................................................................
   1    -67.7992380 -0.677992E+02  0.207E-01    2.34       0.0  T
   2    -67.7992422 -0.420656E-05  0.122E-01    2.34       1.0  T
   3    -67.7992361  0.612785E-05  0.129E-02    2.34       1.2  T
   4    -67.7992439 -0.776887E-05  0.306E-03    2.34       5.2  T
   5    -67.7992440 -0.975648E-07  0.164E-03    2.34       9.7  T
   6    -67.7992440  0.225468E-08  0.624E-04    2.34      25.7  T
   7    -67.7992440 -0.971778E-08  0.126E-04    2.34     127.2  T
     SCC iter.                  ...        0 min,  0.052 sec
     gradient                   ...        0 min,  0.017 sec
 * total energy  :   -66.8886514 Eh     change       -0.2155743E-03 Eh
   gradient norm :     0.0057038 Eh/α   predicted    -0.1631637E-03 ( -24.31%)
   displ. norm   :     0.5135943 α      lambda       -0.3915579E-03
   maximum displ.:     0.2733290 α      in ANC's #5, #7, #1, ...

........................................................................
.............................. CYCLE   31 ..............................
........................................................................
   1    -67.8025911 -0.678026E+02  0.225E-01    2.36       0.0  T
   2    -67.8025959 -0.485690E-05  0.132E-01    2.36       1.0  T
   3    -67.8025907  0.522606E-05  0.143E-02    2.36       1.1  T
   4    -67.8025978 -0.706837E-05  0.428E-03    2.36       3.7  T
   5    -67.8025978 -0.343508E-07  0.217E-03    2.36       7.4  T
   6    -67.8025978 -0.197904E-07  0.659E-04    2.36      24.3  T
   7    -67.8025978 -0.102717E-07  0.208E-04    2.36      77.0  T
     SCC iter.                  ...        0 min,  0.052 sec
     gradient                   ...        0 min,  0.017 sec
 * total energy  :   -66.8889378 Eh     change       -0.2863997E-03 Eh
   gradient norm :     0.0076281 Eh/α   predicted    -0.2474262E-03 ( -13.61%)
   displ. norm   :     0.5652023 α      lambda       -0.4474730E-03
   maximum displ.:     0.2518662 α      in ANC's #7, #5, #1, ...

........................................................................
.............................. CYCLE   32 ..............................
........................................................................
   1    -67.7978370 -0.677978E+02  0.245E-01    2.37       0.0  T
   2    -67.7978402 -0.313835E-05  0.144E-01    2.37       1.0  T
   3    -67.7978390  0.115816E-05  0.895E-03    2.37       1.8  T
   4    -67.7978415 -0.252831E-05  0.302E-03    2.37       5.3  T
   5    -67.7978416 -0.338308E-07  0.143E-03    2.37      11.2  T
   6    -67.7978416 -0.834868E-08  0.529E-04    2.37      30.3  T
   7    -67.7978416 -0.495014E-08  0.155E-04    2.37     103.2  T
     SCC iter.                  ...        0 min,  0.052 sec
     gradient                   ...        0 min,  0.017 sec
 * total energy  :   -66.8892550 Eh     change       -0.3172642E-03 Eh
   gradient norm :     0.0108337 Eh/α   predicted    -0.2952115E-03 (  -6.95%)
   displ. norm   :     0.5216798 α      lambda       -0.9831392E-03
   maximum displ.:     0.2761523 α      in ANC's #6, #1, #2, ...

........................................................................
.............................. CYCLE   33 ..............................
........................................................................
   1    -67.8050835 -0.678051E+02  0.195E-01    2.38       0.0  T
   2    -67.8050944 -0.108156E-04  0.115E-01    2.38       1.0  T
   3    -67.8050710  0.233277E-04  0.244E-02    2.38       1.0  T
   4    -67.8050986 -0.276113E-04  0.398E-03    2.38       4.0  T
   5    -67.8050989 -0.233934E-06  0.210E-03    2.38       7.6  T
   6    -67.8050989 -0.133440E-07  0.103E-03    2.38      15.5  T
   7    -67.8050989 -0.106569E-07  0.279E-04    2.38      57.4  T
   8    -67.8050989 -0.352131E-09  0.141E-04    2.38     113.6  T
     SCC iter.                  ...        0 min,  0.063 sec
     gradient                   ...        0 min,  0.017 sec
 * total energy  :   -66.8898229 Eh     change       -0.5678400E-03 Eh
   gradient norm :     0.0112207 Eh/α   predicted    -0.6253517E-03 (  10.13%)
   displ. norm   :     0.5528152 α      lambda       -0.6331418E-03
   maximum displ.:     0.2774472 α      in ANC's #5, #1, #6, ...

........................................................................
.............................. CYCLE   34 ..............................
........................................................................
   1    -67.8006528 -0.678007E+02  0.222E-01    2.39       0.0  T
   2    -67.8006563 -0.354163E-05  0.131E-01    2.39       1.0  T
   3    -67.8006536  0.271698E-05  0.116E-02    2.39       1.4  T
   4    -67.8006580 -0.433621E-05  0.302E-03    2.39       5.3  T
   5    -67.8006580 -0.102634E-07  0.140E-03    2.39      11.5  T
   6    -67.8006580 -0.130144E-07  0.518E-04    2.39      30.9  T
   7    -67.8006580 -0.511392E-08  0.228E-04    2.39      70.2  T
     SCC iter.                  ...        0 min,  0.052 sec
     gradient                   ...        0 min,  0.017 sec
 * total energy  :   -66.8902892 Eh     change       -0.4663748E-03 Eh
   gradient norm :     0.0132906 Eh/α   predicted    -0.4133187E-03 ( -11.38%)
   displ. norm   :     0.3812043 α      lambda       -0.8168064E-03
   maximum displ.:     0.1703821 α      in ANC's #1, #5, #2, ...

........................................................................
.............................. CYCLE   35 ..............................
........................................................................
   1    -67.8031396 -0.678031E+02  0.139E-01    2.39       0.0  T
   2    -67.8031427 -0.310021E-05  0.825E-02    2.40       1.0  T
   3    -67.8031394  0.328025E-05  0.133E-02    2.39       1.2  T
   4    -67.8031437 -0.430992E-05  0.511E-03    2.39       3.1  T
   5    -67.8031437 -0.255331E-07  0.204E-03    2.39       7.8  T
   6    -67.8031438 -0.451744E-07  0.623E-04    2.39      25.7  T
   7    -67.8031438 -0.429644E-08  0.216E-04    2.39      74.1  T
     SCC iter.                  ...        0 min,  0.051 sec
     gradient                   ...        0 min,  0.017 sec
 * total energy  :   -66.8908085 Eh     change       -0.5192918E-03 Eh
   gradient norm :     0.0115720 Eh/α   predicted    -0.4677539E-03 (  -9.92%)
   displ. norm   :     0.5229245 α      lambda       -0.6856259E-03
   maximum displ.:     0.2719687 α      in ANC's #5, #1, #2, ...

........................................................................
.............................. CYCLE   36 ..............................
........................................................................
   1    -67.7990156 -0.677990E+02  0.199E-01    2.40       0.0  T
   2    -67.7990192 -0.355215E-05  0.118E-01    2.40       1.0  T
   3    -67.7990161  0.304791E-05  0.118E-02    2.40       1.4  T
   4    -67.7990207 -0.454454E-05  0.427E-03    2.40       3.7  T
   5    -67.7990207 -0.675869E-07  0.206E-03    2.40       7.8  T
   6    -67.7990208 -0.218548E-07  0.731E-04    2.40      21.9  T
   7    -67.7990208 -0.101537E-07  0.260E-04    2.40      61.7  T
     SCC iter.                  ...        0 min,  0.051 sec
     gradient                   ...        0 min,  0.017 sec
 * total energy  :   -66.8912804 Eh     change       -0.4718707E-03 Eh
   gradient norm :     0.0152042 Eh/α   predicted    -0.4365558E-03 (  -7.48%)
   displ. norm   :     0.3835497 α      lambda       -0.9343902E-03
   maximum displ.:     0.1646018 α      in ANC's #1, #3, #2, ...

........................................................................
.............................. CYCLE   37 ..............................
........................................................................
   1    -67.8063675 -0.678064E+02  0.124E-01    2.42       0.0  T
   2    -67.8063742 -0.666151E-05  0.738E-02    2.42       1.0  T
   3    -67.8063697  0.451389E-05  0.140E-02    2.41       1.1  T
   4    -67.8063756 -0.591966E-05  0.431E-03    2.41       3.7  T
   5    -67.8063757 -0.109102E-06  0.224E-03    2.41       7.1  T
   6    -67.8063757 -0.984808E-08  0.997E-04    2.41      16.1  T
   7    -67.8063757 -0.123413E-07  0.306E-04    2.41      52.4  T
     SCC iter.                  ...        0 min,  0.052 sec
     gradient                   ...        0 min,  0.017 sec
 * total energy  :   -66.8917265 Eh     change       -0.4460702E-03 Eh
   gradient norm :     0.0129248 Eh/α   predicted    -0.5359254E-03 (  20.14%)
   displ. norm   :     0.5053564 α      lambda       -0.6998252E-03
   maximum displ.:     0.2777747 α      in ANC's #5, #1, #4, ...

........................................................................
.............................. CYCLE   38 ..............................
........................................................................
   1    -67.8004193 -0.678004E+02  0.187E-01    2.43       0.0  T
   2    -67.8004243 -0.498347E-05  0.110E-01    2.42       1.0  T
   3    -67.8004213  0.298912E-05  0.108E-02    2.43       1.5  T
   4    -67.8004256 -0.429167E-05  0.289E-03    2.42       5.5  T
   5    -67.8004257 -0.905234E-07  0.152E-03    2.42      10.6  T
   6    -67.8004257 -0.455846E-08  0.731E-04    2.42      21.9  T
   7    -67.8004257 -0.751831E-08  0.221E-04    2.42      72.5  T
     SCC iter.                  ...        0 min,  0.051 sec
     gradient                   ...        0 min,  0.017 sec
 * total energy  :   -66.8921796 Eh     change       -0.4531757E-03 Eh
   gradient norm :     0.0123764 Eh/α   predicted    -0.4392747E-03 (  -3.07%)
   displ. norm   :     0.3421782 α      lambda       -0.7226487E-03
   maximum displ.:     0.1654141 α      in ANC's #5, #1, #4, ...

........................................................................
.............................. CYCLE   39 ..............................
........................................................................
   1    -67.8016940 -0.678017E+02  0.119E-01    2.44       0.0  T
   2    -67.8016983 -0.435361E-05  0.705E-02    2.44       1.0  T
   3    -67.8016939  0.447107E-05  0.138E-02    2.44       1.2  T
   4    -67.8016996 -0.578250E-05  0.335E-03    2.44       4.8  T
   5    -67.8016997 -0.389438E-07  0.183E-03    2.44       8.8  T
   6    -67.8016997 -0.934460E-08  0.724E-04    2.44      22.1  T
   7    -67.8016997 -0.667647E-08  0.211E-04    2.44      75.9  T
     SCC iter.                  ...        0 min,  0.051 sec
     gradient                   ...        0 min,  0.017 sec
 * total energy  :   -66.8925602 Eh     change       -0.3805132E-03 Eh
   gradient norm :     0.0138143 Eh/α   predicted    -0.4036311E-03 (   6.08%)
   displ. norm   :     0.3732842 α      lambda       -0.6641800E-03
   maximum displ.:     0.1646273 α      in ANC's #1, #5, #3, ...

........................................................................
.............................. CYCLE   40 ..............................
........................................................................
   1    -67.8046366 -0.678046E+02  0.117E-01    2.46       0.0  T
   2    -67.8046398 -0.326804E-05  0.687E-02    2.46       1.0  T
   3    -67.8046366  0.324151E-05  0.113E-02    2.46       1.4  T
   4    -67.8046408 -0.419790E-05  0.309E-03    2.46       5.2  T
   5    -67.8046409 -0.720329E-07  0.159E-03    2.46      10.1  T
   6    -67.8046409 -0.488461E-08  0.671E-04    2.46      23.9  T
   7    -67.8046409 -0.758077E-08  0.204E-04    2.46      78.5  T
     SCC iter.                  ...        0 min,  0.053 sec
     gradient                   ...        0 min,  0.017 sec
 * total energy  :   -66.8929431 Eh     change       -0.3829192E-03 Eh
   gradient norm :     0.0140777 Eh/α   predicted    -0.3783648E-03 (  -1.19%)
   displ. norm   :     0.4124721 α      lambda       -0.7275183E-03
   maximum displ.:     0.1781048 α      in ANC's #1, #4, #5, ...

........................................................................
.............................. CYCLE   41 ..............................
........................................................................
   1    -67.8077937 -0.678078E+02  0.127E-01    2.47       0.0  T
   2    -67.8078059 -0.121771E-04  0.750E-02    2.47       1.0  T
   3    -67.8078036  0.224913E-05  0.113E-02    2.47       1.4  T
   4    -67.8078067 -0.311292E-05  0.351E-03    2.47       4.6  T
   5    -67.8078070 -0.312896E-06  0.147E-03    2.47      10.9  T
   6    -67.8078071 -0.106706E-07  0.867E-04    2.47      18.5  T
   7    -67.8078071 -0.595887E-08  0.317E-04    2.47      50.5  T
     SCC iter.                  ...        0 min,  0.051 sec
     gradient                   ...        0 min,  0.017 sec
 * total energy  :   -66.8933220 Eh     change       -0.3789148E-03 Eh
   gradient norm :     0.0136478 Eh/α   predicted    -0.4256499E-03 (  12.33%)
   displ. norm   :     0.4619696 α      lambda       -0.5679505E-03
   maximum displ.:     0.1941051 α      in ANC's #1, #5, #3, ...

........................................................................
.............................. CYCLE   42 ..............................
........................................................................
   1    -67.8067210 -0.678067E+02  0.134E-01    2.49       0.0  T
   2    -67.8067253 -0.424161E-05  0.796E-02    2.49       1.0  T
   3    -67.8067195  0.579323E-05  0.145E-02    2.49       1.1  T
   4    -67.8067271 -0.763599E-05  0.296E-03    2.49       5.4  T
   5    -67.8067272 -0.353003E-07  0.179E-03    2.49       9.0  T
   6    -67.8067272 -0.165357E-07  0.720E-04    2.49      22.2  T
   7    -67.8067272 -0.605885E-08  0.254E-04    2.49      63.0  T
     SCC iter.                  ...        0 min,  0.051 sec
     gradient                   ...        0 min,  0.017 sec
 * total energy  :   -66.8936689 Eh     change       -0.3468981E-03 Eh
   gradient norm :     0.0112269 Eh/α   predicted    -0.3445834E-03 (  -0.67%)
   displ. norm   :     0.3420752 α      lambda       -0.6195291E-03
   maximum displ.:     0.1705115 α      in ANC's #6, #4, #3, ...
 * RMSD in coord.:     0.9943517 α      energy gain  -0.6157524E-02 Eh

generating ANC from model Hessian ...
Using Lindh-Hessian (1995)
 Shifting diagonal of input Hessian by   9.807601833033783E-003
 Lowest  eigenvalues of input Hessian
    0.000000    0.000000    0.000000    0.000000    0.000000    0.000000
    0.010000    0.010114    0.010405    0.011056    0.011884    0.012051
    0.013554    0.014068    0.014438    0.015307    0.015586    0.017162
 Highest eigenvalues
    2.019664    2.065148    2.082381    2.125616    2.166787    2.283362
 

........................................................................
.............................. CYCLE   43 ..............................
........................................................................
   1    -67.8127842 -0.678128E+02  0.120E-01    2.50       0.0  T
   2    -67.8128109 -0.267736E-04  0.693E-02    2.50       1.0  T
   3    -67.8128047  0.619873E-05  0.208E-02    2.50       1.0  T
   4    -67.8128122 -0.744288E-05  0.627E-03    2.50       2.6  T
   5    -67.8128137 -0.146996E-05  0.148E-03    2.50      10.8  T
   6    -67.8128137 -0.316618E-08  0.867E-04    2.50      18.5  T
   7    -67.8128137 -0.101482E-07  0.222E-04    2.50      72.3  T
     SCC iter.                  ...        0 min,  0.051 sec
     gradient                   ...        0 min,  0.017 sec
 * total energy  :   -66.8937038 Eh     change       -0.3495029E-04 Eh
   gradient norm :     0.0171840 Eh/α   predicted     0.0000000E+00 (-100.00%)
   displ. norm   :     0.0923683 α      lambda       -0.5809612E-03
   maximum displ.:     0.0341674 α      in ANC's #9, #6, #4, ...

........................................................................
.............................. CYCLE   44 ..............................
........................................................................
   1    -67.8110676 -0.678111E+02  0.512E-02    2.50       0.0  T
   2    -67.8110728 -0.519631E-05  0.305E-02    2.50       1.0  T
   3    -67.8110717  0.112600E-05  0.959E-03    2.50       1.7  T
   4    -67.8110732 -0.153753E-05  0.279E-03    2.50       5.7  T
   5    -67.8110734 -0.190967E-06  0.111E-03    2.50      14.4  T
   6    -67.8110734  0.622435E-11  0.572E-04    2.50      28.0  T
   7    -67.8110734 -0.382138E-08  0.131E-04    2.50     122.6  T
     SCC iter.                  ...        0 min,  0.051 sec
     gradient                   ...        0 min,  0.017 sec
 * total energy  :   -66.8940333 Eh     change       -0.3294337E-03 Eh
   gradient norm :     0.0057747 Eh/α   predicted    -0.2929624E-03 ( -11.07%)
   displ. norm   :     0.0916671 α      lambda       -0.1646680E-03
   maximum displ.:     0.0333341 α      in ANC's #2, #3, #4, ...

........................................................................
.............................. CYCLE   45 ..............................
........................................................................
   1    -67.8101908 -0.678102E+02  0.365E-02    2.51       0.0  T
   2    -67.8101929 -0.215211E-05  0.217E-02    2.51       1.0  T
   3    -67.8101927  0.185702E-06  0.510E-03    2.51       3.1  T
   4    -67.8101930 -0.264776E-06  0.199E-03    2.51       8.0  T
   5    -67.8101931 -0.861641E-07  0.821E-04    2.51      19.5  T
   6    -67.8101931 -0.375891E-09  0.406E-04    2.51      39.4  T
     SCC iter.                  ...        0 min,  0.044 sec
     gradient                   ...        0 min,  0.017 sec
 * total energy  :   -66.8941343 Eh     change       -0.1010074E-03 Eh
   gradient norm :     0.0030006 Eh/α   predicted    -0.8302629E-04 ( -17.80%)
   displ. norm   :     0.1130188 α      lambda       -0.8418578E-04
   maximum displ.:     0.0434060 α      in ANC's #2, #3, #9, ...

........................................................................
.............................. CYCLE   46 ..............................
........................................................................
   1    -67.8099024 -0.678099E+02  0.326E-02    2.51       0.0  T
   2    -67.8099028 -0.395320E-06  0.193E-02    2.51       1.0  T
   3    -67.8099027  0.115549E-06  0.302E-03    2.51       5.3  T
   4    -67.8099029 -0.189193E-06  0.127E-03    2.51      12.6  T
   5    -67.8099029 -0.177019E-07  0.633E-04    2.51      25.3  T
   6    -67.8099029 -0.163595E-09  0.188E-04    2.51      85.2  T
     SCC iter.                  ...        0 min,  0.046 sec
     gradient                   ...        0 min,  0.017 sec
 * total energy  :   -66.8942054 Eh     change       -0.7109712E-04 Eh
   gradient norm :     0.0040470 Eh/α   predicted    -0.4263410E-04 ( -40.03%)
   displ. norm   :     0.2964604 α      lambda       -0.1938904E-03
   maximum displ.:     0.1164002 α      in ANC's #2, #4, #3, ...

........................................................................
.............................. CYCLE   47 ..............................
........................................................................
   1    -67.8092321 -0.678092E+02  0.848E-02    2.51       0.0  T
   2    -67.8092335 -0.138008E-05  0.501E-02    2.51       1.0  T
   3    -67.8092322  0.131701E-05  0.825E-03    2.51       1.9  T
   4    -67.8092341 -0.192770E-05  0.261E-03    2.51       6.1  T
   5    -67.8092341 -0.192920E-07  0.132E-03    2.51      12.1  T
   6    -67.8092341 -0.477660E-08  0.407E-04    2.51      39.4  T
   7    -67.8092341 -0.354358E-08  0.125E-04    2.51     128.1  T
     SCC iter.                  ...        0 min,  0.051 sec
     gradient                   ...        0 min,  0.017 sec
 * total energy  :   -66.8943442 Eh     change       -0.1388462E-03 Eh
   gradient norm :     0.0047505 Eh/α   predicted    -0.1055011E-03 ( -24.02%)
   displ. norm   :     0.2514316 α      lambda       -0.1216421E-03
   maximum displ.:     0.1044659 α      in ANC's #2, #3, #4, ...

........................................................................
.............................. CYCLE   48 ..............................
........................................................................
   1    -67.8092216 -0.678092E+02  0.716E-02    2.51       0.0  T
   2    -67.8092225 -0.871954E-06  0.421E-02    2.51       1.0  T
   3    -67.8092212  0.122440E-05  0.739E-03    2.51       2.2  T
   4    -67.8092229 -0.166817E-05  0.186E-03    2.51       8.6  T
   5    -67.8092229 -0.566848E-08  0.942E-04    2.51      17.0  T
   6    -67.8092229 -0.389602E-08  0.325E-04    2.51      49.3  T
     SCC iter.                  ...        0 min,  0.044 sec
     gradient                   ...        0 min,  0.017 sec
 * total energy  :   -66.8944396 Eh     change       -0.9535561E-04 Eh
   gradient norm :     0.0043243 Eh/α   predicted    -0.6467015E-04 ( -32.18%)
   displ. norm   :     0.2874874 α      lambda       -0.1339781E-03
   maximum displ.:     0.1256726 α      in ANC's #3, #2, #4, ...

........................................................................
.............................. CYCLE   49 ..............................
........................................................................
   1    -67.8100058 -0.678100E+02  0.812E-02    2.51       0.0  T
   2    -67.8100070 -0.117436E-05  0.477E-02    2.51       1.0  T
   3    -67.8100053  0.170718E-05  0.847E-03    2.51       1.9  T
   4    -67.8100076 -0.226166E-05  0.193E-03    2.51       8.3  T
   5    -67.8100076 -0.113103E-07  0.101E-03    2.51      15.9  T
   6    -67.8100076 -0.398441E-08  0.399E-04    2.51      40.2  T
   7    -67.8100076 -0.210707E-08  0.103E-04    2.51     155.0  T
     SCC iter.                  ...        0 min,  0.051 sec
     gradient                   ...        0 min,  0.017 sec
 * total energy  :   -66.8945416 Eh     change       -0.1019856E-03 Eh
   gradient norm :     0.0032380 Eh/α   predicted    -0.7253032E-04 ( -28.88%)
   displ. norm   :     0.2853651 α      lambda       -0.1017475E-03
   maximum displ.:     0.1343689 α      in ANC's #3, #2, #4, ...

........................................................................
.............................. CYCLE   50 ..............................
........................................................................
   1    -67.8105874 -0.678106E+02  0.785E-02    2.51       0.0  T
   2    -67.8105883 -0.965829E-06  0.462E-02    2.51       1.0  T
   3    -67.8105867  0.160965E-05  0.801E-03    2.51       2.0  T
   4    -67.8105888 -0.212094E-05  0.187E-03    2.51       8.6  T
   5    -67.8105888 -0.754076E-08  0.921E-04    2.51      17.4  T
   6    -67.8105888 -0.568853E-08  0.325E-04    2.51      49.3  T
     SCC iter.                  ...        0 min,  0.045 sec
     gradient                   ...        0 min,  0.017 sec
 * total energy  :   -66.8946183 Eh     change       -0.7670172E-04 Eh
   gradient norm :     0.0028955 Eh/α   predicted    -0.5501716E-04 ( -28.27%)
   displ. norm   :     0.2451471 α      lambda       -0.7292620E-04
   maximum displ.:     0.1261178 α      in ANC's #3, #2, #1, ...

........................................................................
.............................. CYCLE   51 ..............................
........................................................................
   1    -67.8114625 -0.678115E+02  0.649E-02    2.51       0.0  T
   2    -67.8114632 -0.741332E-06  0.382E-02    2.51       1.0  T
   3    -67.8114620  0.121097E-05  0.675E-03    2.51       2.4  T
   4    -67.8114636 -0.157473E-05  0.166E-03    2.51       9.6  T
   5    -67.8114636 -0.820444E-08  0.873E-04    2.51      18.3  T
   6    -67.8114636 -0.284395E-08  0.293E-04    2.51      54.7  T
     SCC iter.                  ...        0 min,  0.044 sec
     gradient                   ...        0 min,  0.017 sec
 * total energy  :   -66.8946758 Eh     change       -0.5758121E-04 Eh
   gradient norm :     0.0028603 Eh/α   predicted    -0.3865611E-04 ( -32.87%)
   displ. norm   :     0.2926422 α      lambda       -0.6857109E-04
   maximum displ.:     0.1560178 α      in ANC's #3, #2, #1, ...

........................................................................
.............................. CYCLE   52 ..............................
........................................................................
   1    -67.8110723 -0.678111E+02  0.747E-02    2.51       0.0  T
   2    -67.8110732 -0.857286E-06  0.439E-02    2.51       1.0  T
   3    -67.8110719  0.127350E-05  0.707E-03    2.51       2.3  T
   4    -67.8110736 -0.170809E-05  0.195E-03    2.51       8.2  T
   5    -67.8110737 -0.122131E-07  0.939E-04    2.51      17.1  T
   6    -67.8110737 -0.214614E-08  0.311E-04    2.51      51.5  T
     SCC iter.                  ...        0 min,  0.044 sec
     gradient                   ...        0 min,  0.017 sec
 * total energy  :   -66.8947306 Eh     change       -0.5477454E-04 Eh
   gradient norm :     0.0029480 Eh/α   predicted    -0.3722571E-04 ( -32.04%)
   displ. norm   :     0.2873888 α      lambda       -0.7996929E-04
   maximum displ.:     0.1626407 α      in ANC's #3, #2, #1, ...

........................................................................
.............................. CYCLE   53 ..............................
........................................................................
   1    -67.8126857 -0.678127E+02  0.708E-02    2.51       0.0  T
   2    -67.8126867 -0.108654E-05  0.416E-02    2.51       1.0  T
   3    -67.8126857  0.993240E-06  0.639E-03    2.51       2.5  T
   4    -67.8126871 -0.132922E-05  0.192E-03    2.51       8.3  T
   5    -67.8126871 -0.239918E-07  0.106E-03    2.51      15.0  T
   6    -67.8126871 -0.572541E-09  0.371E-04    2.51      43.2  T
   7    -67.8126871 -0.267997E-08  0.103E-04    2.51     155.3  T
     SCC iter.                  ...        0 min,  0.053 sec
     gradient                   ...        0 min,  0.017 sec
 * total energy  :   -66.8947837 Eh     change       -0.5307022E-04 Eh
   gradient norm :     0.0033119 Eh/α   predicted    -0.4328785E-04 ( -18.43%)
   displ. norm   :     0.3155281 α      lambda       -0.5937002E-04
   maximum displ.:     0.1783785 α      in ANC's #3, #2, #1, ...

........................................................................
.............................. CYCLE   54 ..............................
........................................................................
   1    -67.8109527 -0.678110E+02  0.793E-02    2.51       0.0  T
   2    -67.8109544 -0.166809E-05  0.466E-02    2.51       1.0  T
   3    -67.8109531  0.130738E-05  0.757E-03    2.51       2.1  T
   4    -67.8109549 -0.177004E-05  0.229E-03    2.51       7.0  T
   5    -67.8109549 -0.560580E-07  0.122E-03    2.51      13.1  T
   6    -67.8109549 -0.377716E-08  0.502E-04    2.51      31.9  T
   7    -67.8109549 -0.325211E-08  0.117E-04    2.51     136.6  T
     SCC iter.                  ...        0 min,  0.052 sec
     gradient                   ...        0 min,  0.017 sec
 * total energy  :   -66.8948185 Eh     change       -0.3485231E-04 Eh
   gradient norm :     0.0027241 Eh/α   predicted    -0.3264801E-04 (  -6.32%)
   displ. norm   :     0.1179715 α      lambda       -0.3839156E-04
   maximum displ.:     0.0714536 α      in ANC's #3, #2, #1, ...

........................................................................
.............................. CYCLE   55 ..............................
........................................................................
   1    -67.8118746 -0.678119E+02  0.338E-02    2.52       0.0  T
   2    -67.8118749 -0.250632E-06  0.199E-02    2.52       1.0  T
   3    -67.8118747  0.159361E-06  0.285E-03    2.52       5.6  T
   4    -67.8118749 -0.228002E-06  0.794E-04    2.52      20.2  T
   5    -67.8118749 -0.240296E-08  0.418E-04    2.52      38.3  T
     SCC iter.                  ...        0 min,  0.038 sec
     gradient                   ...        0 min,  0.017 sec
 * total energy  :   -66.8948477 Eh     change       -0.2913061E-04 Eh
   gradient norm :     0.0017893 Eh/α   predicted    -0.1946390E-04 ( -33.18%)
   displ. norm   :     0.3147812 α      lambda       -0.4446308E-04
   maximum displ.:     0.2000585 α      in ANC's #3, #2, #1, ...

........................................................................
.............................. CYCLE   56 ..............................
........................................................................
   1    -67.8118945 -0.678119E+02  0.935E-02    2.51       0.0  T
   2    -67.8118952 -0.725925E-06  0.548E-02    2.51       1.0  T
   3    -67.8118949  0.372211E-06  0.522E-03    2.51       3.1  T
   4    -67.8118956 -0.734301E-06  0.203E-03    2.51       7.9  T
   5    -67.8118956 -0.757491E-08  0.907E-04    2.51      17.6  T
   6    -67.8118956 -0.588958E-08  0.254E-04    2.51      63.1  T
     SCC iter.                  ...        0 min,  0.045 sec
     gradient                   ...        0 min,  0.017 sec
 * total energy  :   -66.8948786 Eh     change       -0.3094382E-04 Eh
   gradient norm :     0.0030496 Eh/α   predicted    -0.2321128E-04 ( -24.99%)
   displ. norm   :     0.0460457 α      lambda       -0.1830239E-04
   maximum displ.:     0.0293166 α      in ANC's #4, #1, #11, ...

........................................................................
.............................. CYCLE   57 ..............................
........................................................................
   1    -67.8124051 -0.678124E+02  0.155E-02    2.51       0.0  T
   2    -67.8124052 -0.157719E-06  0.922E-03    2.51       1.7  T
   3    -67.8124051  0.138897E-06  0.250E-03    2.51       6.4  T
   4    -67.8124053 -0.184324E-06  0.491E-04    2.51      32.6  T
   5    -67.8124053 -0.110133E-08  0.284E-04    2.51      56.5  T
     SCC iter.                  ...        0 min,  0.038 sec
     gradient                   ...        0 min,  0.017 sec
 * total energy  :   -66.8948921 Eh     change       -0.1345396E-04 Eh
   gradient norm :     0.0024177 Eh/α   predicted    -0.9170784E-05 ( -31.84%)
   displ. norm   :     0.0700338 α      lambda       -0.2868705E-04
   maximum displ.:     0.0399556 α      in ANC's #4, #11, #3, ...

........................................................................
.............................. CYCLE   58 ..............................
........................................................................
   1    -67.8121962 -0.678122E+02  0.235E-02    2.51       0.0  T
   2    -67.8121963 -0.131188E-06  0.139E-02    2.51       1.2  T
   3    -67.8121963  0.530153E-07  0.168E-03    2.51       9.5  T
   4    -67.8121964 -0.760593E-07  0.748E-04    2.51      21.4  T
   5    -67.8121964 -0.591632E-08  0.358E-04    2.51      44.7  T
     SCC iter.                  ...        0 min,  0.038 sec
     gradient                   ...        0 min,  0.017 sec
 * total energy  :   -66.8949117 Eh     change       -0.1967247E-04 Eh
   gradient norm :     0.0013154 Eh/α   predicted    -0.1441958E-04 ( -26.70%)
   displ. norm   :     0.0931430 α      lambda       -0.1402875E-04
   maximum displ.:     0.0497688 α      in ANC's #4, #11, #3, ...

........................................................................
.............................. CYCLE   59 ..............................
........................................................................
   1    -67.8118264 -0.678118E+02  0.291E-02    2.51       0.0  T
   2    -67.8118266 -0.198930E-06  0.172E-02    2.51       1.0  T
   3    -67.8118265  0.107837E-06  0.229E-03    2.51       7.0  T
   4    -67.8118267 -0.148130E-06  0.748E-04    2.51      21.4  T
   5    -67.8118267 -0.577732E-08  0.356E-04    2.51      45.0  T
     SCC iter.                  ...        0 min,  0.038 sec
     gradient                   ...        0 min,  0.017 sec
 * total energy  :   -66.8949231 Eh     change       -0.1138832E-04 Eh
   gradient norm :     0.0017019 Eh/α   predicted    -0.7046386E-05 ( -38.13%)
   displ. norm   :     0.0518010 α      lambda       -0.6628422E-05
   maximum displ.:     0.0366105 α      in ANC's #3, #2, #11, ...

........................................................................
.............................. CYCLE   60 ..............................
........................................................................
   1    -67.8117533 -0.678118E+02  0.143E-02    2.51       0.0  T
   2    -67.8117534 -0.115131E-06  0.842E-03    2.51       1.9  T
   3    -67.8117533  0.104505E-06  0.189E-03    2.51       8.5  T
   4    -67.8117534 -0.130669E-06  0.403E-04    2.51      39.7  T
   5    -67.8117534 -0.340719E-08  0.193E-04    2.51      82.9  T
     SCC iter.                  ...        0 min,  0.039 sec
     gradient                   ...        0 min,  0.017 sec
 * total energy  :   -66.8949310 Eh     change       -0.7835874E-05 Eh
   gradient norm :     0.0012033 Eh/α   predicted    -0.3320622E-05 ( -57.62%)
   displ. norm   :     0.1069990 α      lambda       -0.1053774E-04
   maximum displ.:     0.0758240 α      in ANC's #3, #2, #11, ...

........................................................................
.............................. CYCLE   61 ..............................
........................................................................
   1    -67.8118152 -0.678118E+02  0.306E-02    2.51       0.0  T
   2    -67.8118154 -0.213016E-06  0.179E-02    2.51       1.0  T
   3    -67.8118152  0.205351E-06  0.266E-03    2.51       6.0  T
   4    -67.8118155 -0.263144E-06  0.642E-04    2.51      24.9  T
   5    -67.8118155 -0.688037E-08  0.324E-04    2.51      49.4  T
     SCC iter.                  ...        0 min,  0.038 sec
     gradient                   ...        0 min,  0.017 sec
 * total energy  :   -66.8949397 Eh     change       -0.8712956E-05 Eh
   gradient norm :     0.0010563 Eh/α   predicted    -0.5298133E-05 ( -39.19%)
   displ. norm   :     0.0580581 α      lambda       -0.4172286E-05
   maximum displ.:     0.0429343 α      in ANC's #3, #2, #11, ...

........................................................................
.............................. CYCLE   62 ..............................
........................................................................
   1    -67.8118906 -0.678119E+02  0.170E-02    2.51       0.0  T
   2    -67.8118907 -0.173926E-06  0.100E-02    2.51       1.6  T
   3    -67.8118905  0.196044E-06  0.261E-03    2.51       6.1  T
   4    -67.8118908 -0.243966E-06  0.412E-04    2.51      38.8  T
   5    -67.8118908 -0.308438E-08  0.199E-04    2.51      80.3  T
     SCC iter.                  ...        0 min,  0.037 sec
     gradient                   ...        0 min,  0.017 sec
 * total energy  :   -66.8949430 Eh     change       -0.3305900E-05 Eh
   gradient norm :     0.0009387 Eh/α   predicted    -0.2091481E-05 ( -36.73%)
   displ. norm   :     0.0385313 α      lambda       -0.2797954E-05
   maximum displ.:     0.0294045 α      in ANC's #3, #2, #7, ...

   *** GEOMETRY OPTIMIZATION CONVERGED AFTER 62 ITERATIONS ***

------------------------------------------------------------------------
 total energy gain   :        -0.0412904 Eh      -25.9101 kcal/mol
 total RMSD          :         1.4259630 a0        0.7546 Å
 total power (kW/mol):        -1.7485155 (step)  -22.7752 (real)
------------------------------------------------------------------------

 ANCopt (total)                0 d,  0 h,  0 min,  4.760 sec
 optimizer setup                ...        0 min,  0.001 sec (  0.018%)
[...]
H8-C2-C1=121.33                H8-C2-C3=119.36                C4-C3-C2=121.47                H9-C3-C2=118.95                
H9-C3-C4=119.58                C5-C4-C3=119.87                H10-C4-C3=118.90               H10-C4-C5=121.23               
C6-C5-C4=118.53                C11-C5-C4=124.31               C11-C5-C6=117.16               C5-C6-C1=121.65                
H7-C6-C1=119.00                H7-C6-C5=119.35                
 
 selected dihedral angles (degree)
 ---------------------------------
C3-C2-C1-C6=359.94            C3-C2-C1-O12=179.91           H8-C2-C1-C6=179.90            H8-C2-C1-O12=359.87           
C4-C3-C2-C1=359.95            C4-C3-C2-H8=179.99            H9-C3-C2-C1=179.98            H9-C3-C2-H8=  0.02            
C5-C4-C3-C2=  0.09            C5-C4-C3-H9=180.05            H10-C4-C3-C2=179.95           H10-C4-C3-H9=359.91           
C6-C5-C4-C3=  0.00            C6-C5-C4-H10=180.14           C11-C5-C4-C3=180.07           C11-C5-C4-H10=  0.21          
C5-C6-C1-C2=  0.15            C5-C6-C1-O12=180.17           H7-C6-C1-C2=180.06            H7-C6-C1-O12=  0.09           
C1-C6-C5-C4=359.89            C1-C6-C5-C11=179.82           H7-C6-C5-C4=179.97            H7-C6-C5-C11=359.90           
           -------------------------------------------------
          |                Final Singlepoint                |
           -------------------------------------------------

          ...................................................
          :                      SETUP                      :
          :.................................................:
          :  # basis functions                 111          :
          :  # atomic orbitals                 111          :
          :  # shells                           63          :
          :  # electrons                       118          :
          :  max. iterations                   250          :
          :  Hamiltonian                  GFN2-xTB          :
          :  restarted?                      false          :
          :  GBSA solvation                   true          :
          :  PC potential                    false          :
          :  electronic temp.          300.0000000     K    :
          :  accuracy                    1.0000000          :
          :  -> integral cutoff          0.2500000E+02      :
          :  -> integral neglect         0.1000000E-07      :
          :  -> SCF convergence          0.1000000E-05 Eh   :
          :  -> wf. convergence          0.1000000E-03 e    :
          :  Broyden damping             0.4000000          :
          ...................................................

 iter      E             dE          RMSdq      gap      omega  full diag
   1    -67.8118908 -0.678119E+02  0.113E-04    2.51       0.0  T
   2    -67.8118908 -0.992202E-10  0.711E-05    2.51     225.2  T
   3    -67.8118908 -0.448637E-10  0.469E-05    2.51     341.5  T

   *** convergence criteria satisfied after 3 iterations ***

         #    Occupation            Energy/Eh            Energy/eV
      -------------------------------------------------------------
         1        2.0000           -0.7498628             -20.4048
       ...           ...                  ...                  ...
        53        2.0000           -0.4221947             -11.4885
        54        2.0000           -0.4142473             -11.2722
        55        2.0000           -0.4108290             -11.1792
        56        2.0000           -0.4094983             -11.1430
        57        2.0000           -0.3851146             -10.4795
        58        2.0000           -0.3787505             -10.3063
        59        2.0000           -0.3783881             -10.2965 (HOMO)
        60                         -0.2861969              -7.7878 (LUMO)
        61                         -0.2597294              -7.0676
        62                         -0.2396327              -6.5207
        63                         -0.2277993              -6.1987
        64                         -0.2203698              -5.9966
       ...                                ...                  ...
       111                          0.6763378              18.4041
      -------------------------------------------------------------
                  HL-Gap            0.0921912 Eh            2.5087 eV
             Fermi-level           -0.3322925 Eh           -9.0421 eV

 SCC (total)                   0 d,  0 h,  0 min,  0.055 sec
 SCC setup                      ...        0 min,  0.002 sec (  3.516%)
 Dispersion                     ...        0 min,  0.002 sec (  3.311%)
 classical contributions        ...        0 min,  0.000 sec (  0.162%)
 integral evaluation            ...        0 min,  0.009 sec ( 17.116%)
 iterations                     ...        0 min,  0.024 sec ( 44.059%)
 molecular gradient             ...        0 min,  0.017 sec ( 30.604%)
 printout                       ...        0 min,  0.001 sec (  1.117%)

         :::::::::::::::::::::::::::::::::::::::::::::::::::::
         ::                     SUMMARY                     ::
         :::::::::::::::::::::::::::::::::::::::::::::::::::::
         :: total energy             -66.894942984005 Eh    ::
         :: total w/o Gsasa/hb       -66.860848295920 Eh    ::
         :: gradient norm              0.000938366973 Eh/a0 ::
         :: HOMO-LUMO gap              2.508650415046 eV    ::
         ::.................................................::
         :: SCC energy               -67.811890783422 Eh    ::
         :: -> isotropic ES            0.160927063232 Eh    ::
         :: -> anisotropic ES          0.006714657440 Eh    ::
         :: -> anisotropic XC          0.018768865048 Eh    ::
         :: -> dispersion             -0.040305309909 Eh    ::
         :: -> Gsolv                  -0.048875864983 Eh    ::
         ::    -> Gelec               -0.014781176898 Eh    ::
         ::    -> Gsasa               -0.037568053657 Eh    ::
         ::    -> Ghb                 -0.001851449873 Eh    ::
         ::    -> Gshift               0.005324815444 Eh    ::
         :: repulsion energy           0.917294043973 Eh    ::
         :: add. restraining           0.000000000000 Eh    ::
         :: total charge              -0.000000000000 e     ::
         :::::::::::::::::::::::::::::::::::::::::::::::::::::

           -------------------------------------------------
          |                Property Printout                |
           -------------------------------------------------

    * Orbital Energies and Occupations

         #    Occupation            Energy/Eh            Energy/eV
      -------------------------------------------------------------
         1        2.0000           -0.7498628             -20.4048
       ...           ...                  ...                  ...
        47        2.0000           -0.4501745             -12.2499
        48        2.0000           -0.4492438             -12.2245
        49        2.0000           -0.4442843             -12.0896
        50        2.0000           -0.4358633             -11.8604
        51        2.0000           -0.4254695             -11.5776
        52        2.0000           -0.4244593             -11.5501
        53        2.0000           -0.4221947             -11.4885
        54        2.0000           -0.4142473             -11.2722
        55        2.0000           -0.4108290             -11.1792
        56        2.0000           -0.4094983             -11.1430
        57        2.0000           -0.3851146             -10.4795
        58        2.0000           -0.3787505             -10.3063
        59        2.0000           -0.3783881             -10.2965 (HOMO)
        60                         -0.2861969              -7.7878 (LUMO)
        61                         -0.2597294              -7.0676
        62                         -0.2396327              -6.5207
        63                         -0.2277993              -6.1987
        64                         -0.2203698              -5.9966
        65                         -0.1992450              -5.4217
        66                         -0.1952473              -5.3130
        67                         -0.1471523              -4.0042
        68                         -0.1010528              -2.7498
        69                         -0.0781195              -2.1257
        70                         -0.0203267              -0.5531
       ...                                ...                  ...
       111                          0.6763378              18.4041
      -------------------------------------------------------------
                  HL-Gap            0.0921912 Eh            2.5087 eV
             Fermi-level           -0.3322925 Eh           -9.0421 eV

     #   Z          covCN         q      C6AA      α(0)
     1   6 C        2.861     0.143    24.884     8.177
     2   6 C        2.917    -0.067    29.659     8.931
     3   6 C        2.919    -0.036    28.898     8.815
     4   6 C        2.919    -0.047    29.177     8.858
     5   6 C        2.969    -0.011    28.292     8.725
     6   6 C        2.930    -0.053    29.307     8.878
     7   1 H        0.926     0.067     2.118     2.276
     8   1 H        0.926     0.052     2.295     2.369
     9   1 H        0.926     0.053     2.284     2.363
    10   1 H        0.926     0.048     2.347     2.395
    11   6 C        3.116     0.199    23.646     7.965
    12   8 O        1.705    -0.285    18.737     5.844
    13   6 C        3.642     0.021    20.580     6.523
    14   1 H        0.924     0.052     2.296     2.370
    15   1 H        0.925     0.078     2.003     2.213
    16   1 H        0.924     0.052     2.297     2.370
    17   6 C        2.927    -0.152    31.916     9.265
    18   8 O        1.520    -0.507    23.151     6.490
    19   6 C        3.142     0.196    23.615     7.952
    20   1 H        0.926     0.052     2.296     2.370
    21   8 O        1.519    -0.507    23.154     6.490
    22   3 Li       1.953     0.629    31.770    17.047
    23   6 C        2.974    -0.001    28.044     8.687
    24   6 C        2.921    -0.033    28.825     8.804
    25   6 C        2.924    -0.023    28.573     8.766
    26   6 C        2.921    -0.024    28.612     8.772
    27   6 C        2.970    -0.023    28.579     8.769
    28   6 C        2.919    -0.028    28.709     8.786
    29   6 C        2.708     0.356    20.962     7.494
    30   8 O        1.703    -0.258    18.269     5.771
    31   8 O        0.857    -0.435    22.391     6.344
    32   6 C        3.635     0.002    20.928     6.583
    33   1 H        0.924     0.082     1.958     2.188
    34   1 H        0.925     0.100     1.785     2.089
    35   1 H        0.925     0.070     2.088     2.260
    36   1 H        0.926     0.057     2.239     2.340
    37   1 H        0.926     0.062     2.179     2.308
    38   1 H        0.926     0.056     2.242     2.342
    39   1 H        0.926     0.065     2.143     2.289

 Mol. C6AA /au·bohr⁶  :      20130.592814
 Mol. C8AA /au·bohr⁸  :     511193.814940
 Mol. α(0) /au        :        233.277839


Wiberg/Mayer (AO) data.
largest (>0.10) Wiberg bond orders for each atom

 ---------------------------------------------------------------------------
     #   Z sym  total        # sym  WBO       # sym  WBO       # sym  WBO
 ---------------------------------------------------------------------------
     1   6 C    3.936 --     2 C    1.370     6 C    1.361    12 O    1.064
     2   6 C    3.980 --     3 C    1.426     1 C    1.370     8 H    0.965
     3   6 C    3.990 --     4 C    1.463     2 C    1.426     9 H    0.969
                             6 C    0.103
     4   6 C    3.990 --     3 C    1.463     5 C    1.364    10 H    0.962
     5   6 C    3.986 --     6 C    1.412     4 C    1.364    11 C    1.022
     6   6 C    3.987 --     5 C    1.412     1 C    1.361     7 H    0.961
                             3 C    0.103
     7   1 H    0.995 --     6 C    0.961
     8   1 H    0.997 --     2 C    0.965
     9   1 H    0.997 --     3 C    0.969
    10   1 H    0.997 --     4 C    0.962
    11   6 C    3.935 --    18 O    1.441    17 C    1.331     5 C    1.022
    12   8 O    2.223 --     1 C    1.064    13 C    0.975
    13   6 C    3.935 --    15 H    0.978    14 H    0.977    16 H    0.977
                            12 O    0.975
    14   1 H    0.997 --    13 C    0.977
    15   1 H    0.994 --    13 C    0.978
    16   1 H    0.997 --    13 C    0.977
    17   6 C    3.959 --    19 C    1.359    11 C    1.331    20 H    0.958
                            21 O    0.106
    18   8 O    2.056 --    11 C    1.441    22 Li   0.331
    19   6 C    3.939 --    21 O    1.437    17 C    1.359    23 C    1.004
    20   1 H    0.997 --    17 C    0.958
    21   8 O    2.053 --    19 C    1.437    22 Li   0.328    17 C    0.106
    22   3 Li   0.694 --    18 O    0.331    21 O    0.328
    23   6 C    3.987 --    24 C    1.390    25 C    1.389    19 C    1.004
                            27 C    0.101
    24   6 C    3.989 --    28 C    1.455    23 C    1.390    37 H    0.964
                            26 C    0.106
    25   6 C    3.988 --    26 C    1.458    23 C    1.389    39 H    0.964
                            28 C    0.105
    26   6 C    3.989 --    25 C    1.458    27 C    1.390    38 H    0.967
                            24 C    0.106
    27   6 C    3.981 --    26 C    1.390    28 C    1.390    29 C    0.975
                            23 C    0.101
    28   6 C    3.989 --    24 C    1.455    27 C    1.390    36 H    0.967
                            25 C    0.105
    29   6 C    3.909 --    31 O    1.714    30 O    1.146    27 C    0.975
    30   8 O    2.324 --    29 C    1.146    32 C    0.946    31 O    0.165
    31   8 O    2.014 --    29 C    1.714    30 O    0.165
    32   6 C    3.905 --    35 H    0.975    34 H    0.973    33 H    0.973
                            30 O    0.946
    33   1 H    0.993 --    32 C    0.973
    34   1 H    0.990 --    32 C    0.973
    35   1 H    0.995 --    32 C    0.975
    36   1 H    0.996 --    28 C    0.967
    37   1 H    0.995 --    24 C    0.964
    38   1 H    0.996 --    26 C    0.967
    39   1 H    0.995 --    25 C    0.964
 ---------------------------------------------------------------------------

Topologies differ in total number of bonds
Writing topology from bond orders to xtbtopo.mol

molecular dipole:
                 x           y           z       tot (Debye)
 q only:       -1.792       1.711      -1.688
   full:       -1.944       1.859      -1.668       8.046
molecular quadrupole (traceless):
                xx          xy          yy          xz          yz          zz
 q only:      -43.921      78.133     -22.519     -40.806      37.172      66.440
  q+dip:      -46.766      85.110     -24.520     -38.314      41.448      71.286
   full:      -48.136      88.443     -23.940     -40.126      38.492      72.076

           -------------------------------------------------
          |                Geometry Summary                 |
           -------------------------------------------------

      molecular mass/u    :      318.2494186
   center of mass at/Å    :        7.3717279      -4.8967894      -0.3044905
  moments of inertia/u·Å² :        0.7709853E+03   0.6230895E+04   0.6897442E+04
rotational constants/cm⁻¹ :        0.2186505E-01   0.2705491E-02   0.2444041E-02

 * 38 selected distances

     #   Z          #   Z                                           value/Å
     1   6 C        2   6 C                                       1.3908819
     2   6 C        3   6 C                                       1.3865870
     3   6 C        4   6 C                                       1.3805600
     4   6 C        5   6 C                                       1.3969415
     1   6 C        6   6 C                                       1.3927424
     5   6 C        6   6 C                                       1.3901954
     6   6 C        7   1 H                                       1.0786086
     2   6 C        8   1 H                                       1.0780169
     3   6 C        9   1 H                                       1.0798442
     4   6 C       10   1 H                                       1.0767088
     1   6 C       12   8 O                                       1.3618673
    12   8 O       13   6 C                                       1.4137666
    13   6 C       14   1 H                                       1.0939713
    13   6 C       15   1 H                                       1.0882879
    13   6 C       16   1 H                                       1.0941205
    11   6 C       17   6 C                                       1.4019382
    11   6 C       18   8 O                                       1.2667887
    17   6 C       19   6 C                                       1.3960572
    17   6 C       20   1 H                                       1.0746482 (min)
    19   6 C       21   8 O                                       1.2659804
    18   8 O       22   3 Li                                      1.7389138
    21   8 O       22   3 Li                                      1.7415957 (max)
    23   6 C       24   6 C                                       1.3927458
    23   6 C       25   6 C                                       1.3935127
    25   6 C       26   6 C                                       1.3806510
    26   6 C       27   6 C                                       1.3928913
    24   6 C       28   6 C                                       1.3825557
    27   6 C       28   6 C                                       1.3927889
    29   6 C       30   8 O                                       1.3341615
    29   6 C       31   8 O                                       1.2107093
    30   8 O       32   6 C                                       1.4249171
    32   6 C       33   1 H                                       1.0911607
    32   6 C       34   1 H                                       1.0890963
    32   6 C       35   1 H                                       1.0901793
    28   6 C       36   1 H                                       1.0795263
    24   6 C       37   1 H                                       1.0785398
    26   6 C       38   1 H                                       1.0793482
    25   6 C       39   1 H                                       1.0791460

 * 4 distinct bonds (by element types)

   Z      Z             #   av. dist./Å        max./Å        min./Å
   1 H    6 C          15     1.0834135     1.0941205     1.0746482
   6 C    6 C          14     1.3907892     1.4019382     1.3805600
   3 Li   8 O           2     1.7402547     1.7415957     1.7389138
   6 C    8 O           7     1.3254558     1.4249171     1.2107093


optimized geometry written to: xtbopt.xyz


           -------------------------------------------------
          | TOTAL ENERGY              -66.894942984005 Eh   |
          | GRADIENT NORM               0.000938366973 Eh/α |
          | HOMO-LUMO GAP               2.508650415046 eV   |
           -------------------------------------------------

------------------------------------------------------------------------
 * finished run on 2022/02/25 at 08:10:40.231     
------------------------------------------------------------------------
 total:
 * wall-time:     0 d,  0 h,  0 min,  5.801 sec
 *  cpu-time:     0 d,  0 h,  0 min, 21.096 sec
 * ratio c/w:     3.637 speedup
 SCF:
 * wall-time:     0 d,  0 h,  0 min,  0.116 sec
 *  cpu-time:     0 d,  0 h,  0 min,  0.465 sec
 * ratio c/w:     3.993 speedup
 ANC optimizer:
 * wall-time:     0 d,  0 h,  0 min,  5.059 sec
 *  cpu-time:     0 d,  0 h,  0 min, 19.925 sec
 * ratio c/w:     3.938 speedup

