41
 energy: -67.842903279715 gnorm: 0.101567092278 xtb: 6.4.1 (afa7bdf)
C         2.88645675350000   -1.50351866610000   -1.26235729400000
C         2.78187864370000   -2.08965923570000   -2.53791565010000
C         3.69807902850000   -3.06293226160000   -2.93981676030000
C         4.72430265470000   -3.46427804660000   -2.08132070110000
C         4.84965042270000   -2.89196202790000   -0.80090285550000
C         3.91908798380000   -1.90906954830000   -0.40784803370000
H         3.98798738280000   -1.45097896540000    0.57147482450000
H         1.99763710960000   -1.80147527830000   -3.22493031170000
H         3.61183557940000   -3.50979777450000   -3.92201914360000
H         5.41369708800000   -4.22186632880000   -2.42820265660000
C         5.93469794760000   -3.30680583840000    0.13636529600000
O         2.02164784560000   -0.55477338960000   -0.81808208120000
C         0.94828806710000   -0.04732608770000   -1.52009502300000
H         1.29716055020000    0.44419096920000   -2.45307490820000
H         0.43124194780000    0.70847506530000   -0.89395545640000
H         0.22897576870000   -0.85886973800000   -1.76106657470000
C         6.93977442880000   -4.38147885880000   -0.23868047370000
O         6.00968839580000   -2.76765411200000    1.23232417960000
C         7.96736449930000   -4.68154416470000    0.87468263520000
O         7.29008591980000   -5.10749233260000    2.02230533880000
Li        7.47121171850000   -3.70206029240000    3.22712239190000
C         9.02600780890000   -5.71582221570000    0.52808064800000
C         9.07451831650000   -6.40217093270000   -0.69835147630000
C        10.00745278380000   -6.00024315150000    1.48604725830000
C        11.00597436120000   -6.94140361420000    1.23301749100000
C        11.06959527420000   -7.64045915600000    0.00719163160000
C        10.07658509330000   -7.34586368560000   -0.95433983950000
C        12.18935576270000   -8.64251709810000   -0.17527322070000
O        12.44285509530000   -9.40067496920000   -1.28066585800000
O        12.96155574670000   -8.79783771720000    0.75898760570000
C        11.79092864690000   -9.47118836230000   -2.48800245980000
H        10.75390121560000   -9.84034643280000   -2.34602673890000
H        12.31803485090000  -10.20583690380000   -3.13053107470000
H        11.82924111460000   -8.48949947740000   -3.00494866730000
H        10.02866606310000   -7.81571038290000   -1.91347853260000
H         8.34230296370000   -6.22244856800000   -1.47291059430000
H        11.73502434210000   -7.11736209620000    2.01403385280000
H        10.00034815960000   -5.48867414900000    2.44119917540000
H         7.48261949660000   -4.03787232520000   -1.14583124670000
H         6.38240380410000   -5.31507715680000   -0.47051829880000
H         8.50240247310000   -3.73405168880000    1.10580189180000
41
 energy: -67.857851960834 gnorm: 0.048957969138 xtb: 6.4.1 (afa7bdf)
C         2.90085165952110   -1.51372006439359   -1.25659212132511
C         2.79315753917277   -2.09347791119266   -2.52527023053833
C         3.70639638349519   -3.06098908476591   -2.91978863757641
C         4.72760737412440   -3.46657741571811   -2.07200342415223
C         4.85723595248028   -2.90271691417494   -0.79615081408748
C         3.93322915456881   -1.92271215476449   -0.40853869299538
H         4.00552812825025   -1.46832344788850    0.56879970536121
H         2.00788131035805   -1.80058598336429   -3.20686862889665
H         3.61744250260124   -3.50388205671899   -3.90114853197438
H         5.41669145847709   -4.22058319433366   -2.41635060834697
C         5.94188017784736   -3.29991626428044    0.15518860213390
O         2.05238146344744   -0.56157488956773   -0.78417141366299
C         0.97310591760421   -0.07077520550504   -1.52589618155596
H         1.29735338219421    0.42512652715988   -2.45380861506449
H         0.47085170262971    0.67390597343389   -0.89853076012597
H         0.24498773943961   -0.85918916804806   -1.77171057017632
C         6.93548870489340   -4.37577364404279   -0.24661771870823
O         6.03275881258968   -2.74018414833152    1.24087924492177
C         7.95594023536934   -4.68242196121608    0.87618193318922
O         7.31462120310257   -5.11462131987902    2.03471158371834
Li        7.36149302956963   -3.71547529698997    3.15360376222325
C         9.02660030713070   -5.70536343944836    0.50975381658948
C         9.07627494840858   -6.40257180580285   -0.69665704992910
C        10.00802589082666   -6.00199028584124    1.45598252739740
C        10.99349122991005   -6.94444757308841    1.20921491408173
C        11.05578282962297   -7.63785032014887   -0.00850972420458
C        10.06752010269576   -7.34319409013558   -0.95399121215715
C        12.17922673995607   -8.62337401416787   -0.15864540694955
O        12.43979737582107   -9.38188897706430   -1.24799241783907
O        12.95130488712059   -8.78428858735951    0.76854880275790
C        11.77581088072389   -9.45235713088428   -2.47368342269320
H        10.74551860923553   -9.81548650306028   -2.35820635652524
H        12.32162920944438  -10.18551446310014   -3.08429096956781
H        11.79897169796939   -8.49107342255633   -3.00488470273980
H        10.03111568433755   -7.82125381752268   -1.91398302751704
H         8.34342645160541   -6.22267545160153   -1.46586582718011
H        11.73098210064059   -7.13323718968336    1.97742538980482
H         9.99363736704175   -5.49543202439926    2.41315909390381
H         7.46241331233149   -4.04696624688713   -1.15336752468204
H         6.37783955119131   -5.29494771719467   -0.46459126951038
H         8.50427010104988   -3.72755631177131    1.07215477379914
41
 energy: -67.866256774226 gnorm: 0.020535996726 xtb: 6.4.1 (afa7bdf)
C         2.91525166801678   -1.52416570975760   -1.24558311111870
C         2.80605981391814   -2.09802495567371   -2.50864790720308
C         3.71953779474764   -3.06243356408794   -2.89673540421424
C         4.73885818636095   -3.47142002031726   -2.05961983437757
C         4.87027717519849   -2.91113002110523   -0.78657024922594
C         3.94781734611082   -1.93737722536798   -0.40085604650060
H         4.02495368749949   -1.48491712386137    0.57492422162443
H         2.02064161593870   -1.80092335633397   -3.18608991175856
H         3.62791743581313   -3.50142743380195   -3.87850829398879
H         5.42716179469351   -4.22451693622746   -2.40135120025554
C         5.96099759524276   -3.28718472574666    0.16873135084904
O         2.08277978764117   -0.56791592214628   -0.74662895983424
C         0.99960132718112   -0.09430413919915   -1.52817756199709
H         1.32714989578372    0.39268246534510   -2.44952240422899
H         0.50721730900309    0.64325482803494   -0.89938595420414
H         0.28303149841150   -0.88151246204077   -1.77309839241021
C         6.92843166765747   -4.37562047237051   -0.24961186497200
O         6.05838486056902   -2.72780676572891    1.25190725890957
C         7.95327155710763   -4.67626263889092    0.87339617104541
O         7.32653700960245   -5.09344889881393    2.02903896700603
Li        7.20220067136085   -3.72734563199990    3.03400061248977
C         9.01954320717201   -5.70335681895388    0.49374470691241
C         9.07086762789263   -6.40226062814851   -0.70252639169620
C        10.00349272313570   -6.00366774348567    1.43298871360121
C        10.98250632968759   -6.93971438752222    1.18659455396067
C        11.04103773756306   -7.63234628394849   -0.02828975048779
C        10.05589574224485   -7.33828140499205   -0.96413720124951
C        12.16259432246661   -8.60614403488360   -0.14468650392061
O        12.43280010985255   -9.36301894257269   -1.21941657458799
O        12.93800940764203   -8.76579444971000    0.77745392527406
C        11.75888678951392   -9.43433062161034   -2.46444295165178
H        10.73652851235825   -9.79437966614883   -2.35478524120630
H        12.32795308651065  -10.16694175521061   -3.03995797670063
H        11.77687588631275   -8.48249268934356   -2.99394181129533
H        10.02509845905480   -7.82948702157887   -1.92068334130177
H         8.33463157986037   -6.22218872398901   -1.46743296378736
H        11.72746984091203   -7.14856463000985    1.94111945164206
H         9.98564686641625   -5.49192397408613    2.38662796456477
H         7.44833129927359   -4.05601301004943   -1.14998243639238
H         6.35756763454830   -5.27785323266210   -0.45580451178731
H         8.51670624852360   -3.71537626730275    1.03343514367518
41
 energy: -67.870959887625 gnorm: 0.023410764771 xtb: 6.4.1 (afa7bdf)
C         2.93202929910173   -1.53130789671361   -1.22913886191488
C         2.82046962151411   -2.10310592268611   -2.49085746308941
C         3.73405981985944   -3.06858693695068   -2.87884279055869
C         4.75440561239774   -3.47843416094695   -2.04653472305739
C         4.88643461180051   -2.91435785897915   -0.77438083360848
C         3.96653871760438   -1.94316915892632   -0.38618963729118
H         4.04512656880504   -1.49417323097434    0.59082112538118
H         2.03574697385006   -1.80463438366325   -3.16744407739597
H         3.63973898996904   -3.50565513158447   -3.86125272322562
H         5.44234552635085   -4.23183453685043   -2.38776664998019
C         5.97253599235463   -3.28947430888112    0.18030016857722
O         2.10646161768022   -0.57488682667434   -0.72108551401540
C         1.02247776794299   -0.11086039413536   -1.52170533187645
H         1.36673396670986    0.36527248799431   -2.44047016497822
H         0.52701822082710    0.62681926276585   -0.89754243421981
H         0.32149557738779   -0.91038406680071   -1.76358364247906
C         6.92771649705793   -4.37637784668349   -0.25243369233336
O         6.08553656839406   -2.72152801418245    1.25734350101966
C         7.95705417630587   -4.67235540062903    0.86577508389386
O         7.34265841664090   -5.07789818725299    2.02219136243811
Li        6.98925882799434   -3.70082422318560    2.91404013355140
C         9.01727233800092   -5.69945542636775    0.47832567271281
C         9.06143031731150   -6.40032572532443   -0.71586753883180
C        10.00004775982191   -5.99649317367018    1.42027927158114
C        10.97297161686213   -6.93409673576065    1.17562825119391
C        11.02858922565324   -7.62935008438791   -0.04032651162075
C        10.04266931994463   -7.33959829020847   -0.97726746770255
C        12.15436441796397   -8.59160145782768   -0.14106128021129
O        12.42902647783984   -9.35306375884857   -1.20639817362873
O        12.92381893972123   -8.75073353533196    0.78769967615027
C        11.74952697011916   -9.42529041010231   -2.46036202129265
H        10.72995953968528   -9.78593725035970   -2.34338347749539
H        12.32927674511004  -10.15735358891010   -3.01966626623011
H        11.76952660431874   -8.47169570053449   -2.98324069971249
H        10.01252617468715   -7.83550990254587   -1.93137143619492
H         8.32041266472610   -6.22171923621620   -1.47769022939044
H        11.72553981525805   -7.15123055771341    1.91919861845421
H         9.97819711843305   -5.47906627572778    2.36979252543746
H         7.43814573577475   -4.06283869980878   -1.15929513338005
H         6.34258510505518   -5.27266733477466   -0.44211296878895
H         8.52879285196461   -3.71015311593882    1.00336464331296
41
 energy: -67.874109635392 gnorm: 0.024184445533 xtb: 6.4.1 (afa7bdf)
C         2.95059519915200   -1.53749449047194   -1.20758063305422
C         2.83794578709890   -2.10760313721902   -2.47070120035028
C         3.75144261699528   -3.07425942866316   -2.86320190045748
C         4.77302601095271   -3.48440069915136   -2.03335830131131
C         4.90164037474381   -2.91905191281661   -0.75901886865893
C         3.98320674730200   -1.95133842635358   -0.36374214146754
H         4.06574399381760   -1.50315976618526    0.61354646001522
H         2.05406391980772   -1.81044451970939   -3.14787488674031
H         3.65377708742388   -3.51045595568535   -3.84579302456667
H         5.46111487688218   -4.23742196183596   -2.37543084639669
C         5.98829600070185   -3.29180224364566    0.18366182188499
O         2.12749751251671   -0.58372080610738   -0.69890785999111
C         1.04585981725332   -0.12446707271488   -1.50931912173460
H         1.40984282120028    0.34177499878386   -2.42649392881135
H         0.54044540209333    0.61561194642718   -0.89497905351270
H         0.35970618826312   -0.93827124666687   -1.74958064240832
C         6.93112941262859   -4.37834055643532   -0.25336951021502
O         6.09228980011482   -2.74602588754563    1.27368706530938
C         7.96784619578445   -4.66658955237169    0.85591911546961
O         7.36679849875901   -5.04640961437978    2.02231430196072
Li        6.72901496128472   -3.62673935916732    2.75994091380052
C         9.01458195047574   -5.70027361053978    0.46570375366990
C         9.04954381812833   -6.40215836425277   -0.72905557960319
C         9.99636372303997   -5.98844282680196    1.41202598833360
C        10.96736331883574   -6.92576818165543    1.16658016505771
C        11.01921365371408   -7.62677072464616   -0.04954230895103
C        10.03156886654114   -7.34288602552186   -0.99059872922023
C        12.14241892699032   -8.59022712366206   -0.13780345860995
O        12.42746776563638   -9.35074541869792   -1.20008485916545
O        12.91177910381033   -8.73558163775094    0.79579145116498
C        11.74574437254218   -9.42028702938376   -2.45853732814171
H        10.72747055538153   -9.78446746742594   -2.33203049034844
H        12.32993637304247  -10.14795350458828   -3.01508992162203
H        11.76640684147892   -8.45943351487755   -2.97024468713380
H         9.99599739264267   -7.84255073622511   -1.94127075046524
H         8.30575664742980   -6.22342837930800   -1.48916583837351
H        11.72386934012755   -7.14921796950174    1.90294613278142
H         9.96969083005658   -5.46460815997583    2.35599690453692
H         7.43300206733467   -4.07130517421826   -1.16923564087394
H         6.33391236663277   -5.27266169043471   -0.43027929225667
H         8.54715197018253   -3.70655976491672    0.97166501965673
41
 energy: -67.875066264517 gnorm: 0.013372642562 xtb: 6.4.1 (afa7bdf)
C         2.95542467087820   -1.53894657927547   -1.20227050869253
C         2.84094675119647   -2.11110351075458   -2.46636275763072
C         3.75212780597919   -3.07903335901642   -2.86446035814784
C         4.77580600510542   -3.48793697647367   -2.03599322063101
C         4.90533374536628   -2.91795390539429   -0.76375472081742
C         3.98998722753968   -1.94995993961901   -0.36162961912096
H         4.07546697908773   -1.50319844890694    0.61652830940191
H         2.05676227055168   -1.81514071627996   -3.14336053885180
H         3.65298150834935   -3.51535779473943   -3.84661380287672
H         5.46486106744585   -4.24044762507670   -2.37796800713782
C         5.98989216741364   -3.28863361726744    0.17155894233236
O         2.13090095342584   -0.58760209162996   -0.69734761028784
C         1.05177983327347   -0.12805805923289   -1.50203661687884
H         1.41955136833364    0.33669729313977   -2.42000479490504
H         0.54044333246457    0.61374215477549   -0.89280470257058
H         0.36802911344049   -0.94572520963942   -1.74219958499347
C         6.93700907145840   -4.37150168270597   -0.25549234055226
O         6.08979453708493   -2.73409586896966    1.26037783122618
C         7.97105757928637   -4.65726928447480    0.85445002017811
O         7.35948746336758   -5.02484228626121    2.02098224993435
Li        6.70173689113195   -3.66286260817472    2.76136400206205
C         9.00910260644425   -5.70024805468420    0.46659486335762
C         9.04252671726129   -6.40230859996601   -0.72988579438111
C         9.99123018421336   -5.98535205953991    1.41367374260341
C        10.96417353411296   -6.92238017704325    1.16687837322894
C        11.01555661635128   -7.62543418591229   -0.04837183621962
C        10.02544814840906   -7.34496153066246   -0.99027121713132
C        12.14294984018322   -8.58735085748943   -0.14104120228115
O        12.42835770629473   -9.35182923033382   -1.20277897660222
O        12.90583075177313   -8.73378229699919    0.79820157512687
C        11.74789305784729   -9.42062530396107   -2.45694716174628
H        10.72891620596046   -9.78659123850973   -2.32731312299402
H        12.32779095295995  -10.14611565842061   -3.02285444198514
H        11.76738451096510   -8.45615775069542   -2.96543169898590
H         9.98534673461232   -7.84407462618220   -1.94043497504017
H         8.29892987451162   -6.22475554401048   -1.49047513028830
H        11.72271673936974   -7.13962539869776    1.90271916470571
H         9.96517988903189   -5.45861252676169    2.35515930666018
H         7.43815990238627   -4.07430271953374   -1.17735246506371
H         6.33961497157581   -5.26969446196558   -0.42548716637725
H         8.55403382235560   -3.70250465895381    0.96994428157333
41
 energy: -67.875767158659 gnorm: 0.008745083240 xtb: 6.4.1 (afa7bdf)
C         2.96201793147337   -1.54059836844091   -1.19589100992707
C         2.84402281927268   -2.11546564648503   -2.46052541131978
C         3.75190129619938   -3.08383800525944   -2.86686456143937
C         4.78012807636039   -3.49068857207011   -2.04191946181674
C         4.91236730607238   -2.91711864139811   -0.77172372913268
C         4.00052603092691   -1.94869096654056   -0.36127545707799
H         4.09331395733274   -1.50320765466515    0.61692507224890
H         2.05800474320174   -1.82151843343223   -3.13600073787355
H         3.64823429677314   -3.52104725794486   -3.84785034974363
H         5.46948141705625   -4.24339121857944   -2.38311814079504
C         5.99239353080451   -3.28599470803978    0.15813171034821
O         2.13604075686654   -0.59264603635570   -0.69326417400275
C         1.06069328671610   -0.13360974928119   -1.49127427119766
H         1.42962152340109    0.33086772571938   -2.41003249550255
H         0.54318601899988    0.60941499729170   -0.88761306182448
H         0.37782690106115   -0.95313866445863   -1.73215881942303
C         6.94694219338395   -4.36379248486545   -0.25451381705965
O         6.08121238729588   -2.72421450016353    1.24786789018645
C         7.98359606473519   -4.64162621164667    0.85276885495907
O         7.37750588273757   -4.99292772121826    2.03125825114802
Li        6.59760433453925   -3.69796634237383    2.73980118927079
C         9.00920616925475   -5.69750165173831    0.46698142139224
C         9.03588353946908   -6.40353300283762   -0.72834761141046
C         9.99119698777734   -5.98112942891129    1.41404731378815
C        10.96452644433690   -6.91912297618268    1.16562951052248
C        11.01156294939570   -7.62620749512397   -0.04692954889557
C        10.01758060662361   -7.34980125929372   -0.98734686579952
C        12.13950456700642   -8.59159068964105   -0.14296890155509
O        12.42791991623477   -9.35473293979447   -1.20682093156434
O        12.89986662787371   -8.73474175128775    0.79869241785978
C        11.74873076798762   -9.41807918874697   -2.45464424950855
H        10.73039570957807   -9.78921677875159   -2.32413001606417
H        12.32411581186140  -10.13728219446710   -3.03654349545798
H        11.76286790305125   -8.44860882438193   -2.95656479322804
H         9.96813146195167   -7.85103770491672   -1.93577485202934
H         8.29033016592821   -6.22956404104443   -1.48780495824543
H        11.72497671996427   -7.12945538971133    1.90158112327396
H         9.96498572885120   -5.45162137781604    2.35312360033566
H         7.44579697891271   -4.07856976892631   -1.18274887674596
H         6.35342069613612   -5.26790966423408   -0.41683295833849
H         8.57290260139514   -3.69503240828477    0.96216349084518
41
 energy: -67.876173174426 gnorm: 0.008837957323 xtb: 6.4.1 (afa7bdf)
C         2.96300755725448   -1.54079600559471   -1.19788667267332
C         2.84127631760302   -2.11810421960753   -2.46149152537523
C         3.74758611285669   -3.08536250721074   -2.87181507822372
C         4.78024001467742   -3.49029666368738   -2.05039503104221
C         4.91685624151868   -2.91606711485799   -0.78155251741871
C         4.00536494205291   -1.94735409895111   -0.36850629678037
H         4.10526239675500   -1.50053761206721    0.60809792978250
H         2.05153602595021   -1.82627545460059   -3.13387650894208
H         3.63944388117597   -3.52403044999738   -3.85150753657655
H         5.46978032795049   -4.24292581629865   -2.39143079112864
C         5.99665884311392   -3.28138923717871    0.15012056387279
O         2.13608586993083   -0.59453380221896   -0.69344376046232
C         1.06176854255163   -0.13578723615560   -1.48664693044380
H         1.42429640133673    0.33159624220141   -2.40666124979885
H         0.54480611412514    0.60678913460303   -0.88210509062733
H         0.37466937958336   -0.95172883219707   -1.72845513236304
C         6.95661624249073   -4.35827998944671   -0.25256620803432
O         6.07308024409160   -2.72148320113420    1.24255864499044
C         7.99699436912871   -4.62729841073967    0.85353534159468
O         7.40011147736835   -4.96775732687057    2.04318912694845
Li        6.53110750065712   -3.74311780471521    2.74871122302386
C         9.01506300589434   -5.69294409263471    0.47019416881342
C         9.03479325042919   -6.40535224748799   -0.72122987297973
C         9.99834475543017   -5.97890913361261    1.41461730138138
C        10.96924630169305   -6.92002841190627    1.16578204000392
C        11.01076869755206   -7.62991081300783   -0.04400755112339
C        10.01263806897828   -7.35556240740764   -0.97962706774087
C        12.13865836048929   -8.59713489696117   -0.14397572088508
O        12.42546337690730   -9.35720261669892   -1.21087610124704
O        12.89782230969713   -8.74436338236519    0.79715158954299
C        11.74612700634212   -9.41363582478982   -2.45382929396498
H        10.72886234774512   -9.78946004065672   -2.32756591980038
H        12.31962850610860  -10.12706338420144   -3.04730234770099
H        11.75404008368510   -8.44221348001516   -2.95219403523616
H         9.95526510793316   -7.86087962174007   -1.92598036373640
H         8.28744905092944   -6.23411234981810   -1.47931080634118
H        11.73035084784706   -7.12614101250329    1.90274761986418
H         9.97535469929217   -5.44747854796643    2.35275100395738
H         7.45611358224574   -4.07715975081124   -1.18063310402575
H         6.36932991398868   -5.26653756003333   -0.41367040745645
H         8.58865503343903   -3.68510701495639    0.95657465755290
41
 energy: -67.876576851140 gnorm: 0.009188186088 xtb: 6.4.1 (afa7bdf)
C         2.96453935193372   -1.54060371272406   -1.20367877578909
C         2.83795789041160   -2.12170099274969   -2.46467599450731
C         3.74487986111121   -3.08632191581338   -2.87662794064138
C         4.78283278247018   -3.48807756008946   -2.05941660504089
C         4.92344328114648   -2.91438957153728   -0.79143533056452
C         4.01192839844778   -1.94410052241110   -0.37997953762267
H         4.11817003166301   -1.49517855459354    0.59454956884268
H         2.04281350647254   -1.83312530321955   -3.13268543787871
H         3.63191769083859   -3.52720971180962   -3.85472669289688
H         5.47217967755264   -4.24102533481791   -2.40060773826603
C         5.99519306872408   -3.28505062997885    0.15271801273208
O         2.13671051300753   -0.59585476965516   -0.69461254068258
C         1.06073388350852   -0.13808796226400   -1.48350409191845
H         1.41403229179841    0.33255702855532   -2.40561020721651
H         0.54746097262944    0.60355573806416   -0.87469940617460
H         0.36837812840583   -0.94983680493125   -1.72503755520736
C         6.96968743689971   -4.35052341280656   -0.24944444271309
O         6.05230529518160   -2.73839107445170    1.25261180052606
C         8.01858633488282   -4.60629805159397    0.85334803918963
O         7.43711420296464   -4.92645709226916    2.05843770829930
Li        6.43343216818572   -3.79852930162893    2.74572911497766
C         9.02713457701712   -5.68463385926799    0.47423205397285
C         9.03506564451733   -6.40823725558686   -0.71001067956139
C        10.01354233828637   -5.97403180986188    1.41415255227930
C        10.97819429097123   -6.92186461967239    1.16570802350259
C        11.00963022628831   -7.63757038738239   -0.03986371761649
C        10.00511970739164   -7.36557878819508   -0.96773413661149
C        12.13486599459343   -8.60798375649384   -0.14307854626007
O        12.41928810611983   -9.36114012321396   -1.21547273532384
O        12.89363935527598   -8.76341082058998    0.79627356841803
C        11.73962541167638   -9.40555341709174   -2.45547698416491
H        10.72443541816818   -9.78926947016706   -2.33696441617009
H        12.31532042285989  -10.10910610257297   -3.06029756998846
H        11.73842524027257   -8.43040417770748   -2.94619047838513
H         9.93628012325512   -7.87972628530756   -1.90927357055316
H         8.28452592069473   -6.24013429287841   -1.46543179549911
H        11.74033559037450   -7.12602248617107    1.90259447794093
H         9.99801128637071   -5.43856829289134    2.35045003132837
H         7.46732574558779   -4.06669836007210   -1.17625499732372
H         6.39322880784518   -5.26444653120104   -0.41121346277399
H         8.61223213299766   -3.66690664724904    0.94068872454245
41
 energy: -67.876770855843 gnorm: 0.007286870158 xtb: 6.4.1 (afa7bdf)
C         2.96372321472212   -1.53984602579825   -1.21228740844744
C         2.83530496348689   -2.12357438670769   -2.47107056185628
C         3.74505282804654   -3.08612101933182   -2.88028379427580
C         4.78403463971152   -3.48647803659425   -2.06351818815024
C         4.92452946726401   -2.91354371734570   -0.79565100411063
C         4.01219192104705   -1.94179952997186   -0.38909334694466
H         4.11910702205913   -1.49006772122037    0.58397270869494
H         2.03654635082504   -1.83798773724289   -3.13641101264831
H         3.63147134775617   -3.52881544447564   -3.85760724367293
H         5.47349015820236   -4.23930208607833   -2.40533929757300
C         5.99122166324678   -3.28725692833044    0.16015236123875
O         2.13540363309231   -0.59499885018500   -0.70006189424684
C         1.05528021084898   -0.13756661328789   -1.48619461360365
H         1.40196283868449    0.33444454616921   -2.41003455403921
H         0.54715931781629    0.60342988309854   -0.87206495261672
H         0.35987535280893   -0.94737170767146   -1.72517842284975
C         6.97718784415203   -4.34360179064193   -0.24653596567392
O         6.02821118620462   -2.75862694518787    1.26786800144740
C         8.03178148584133   -4.59417011092527    0.85451293706664
O         7.46132933006549   -4.90487568182288    2.06622793110917
Li        6.41254123344351   -3.84615132006428    2.75411638566226
C         9.03770399267313   -5.67670926256615    0.47797005723653
C         9.03650302251395   -6.40897642882327   -0.70069679365083
C        10.02790647182095   -5.96759967084597    1.41385175271757
C        10.98647140864053   -6.92181519600256    1.16635068682878
C        11.00849191247177   -7.64404986171947   -0.03557387392155
C         9.99954175294129   -7.37251940945251   -0.95797838207919
C        12.12755308944001   -8.62007790066137   -0.13970110146184
O        12.41121049793091   -9.36506053497613   -1.21803792102257
O        12.88793997156534   -8.78240558883848    0.79695479708464
C        11.73358344660871   -9.39906950832298   -2.46018046873963
H        10.72027450929828   -9.78979733486245   -2.34940281248237
H        12.31536431330110  -10.09371607741374   -3.06908595960096
H        11.72670768118938   -8.41984174133526   -2.94218790964541
H         9.92250100980506   -7.89541693379825   -1.89430279779461
H         8.28284170274621   -6.24266225138577   -1.45342661385471
H        11.74971200575685   -7.12720661321137    1.90193493005850
H        10.02091573782179   -5.42837407460899    2.34868999269767
H         7.47218405088344   -4.05052178672985   -1.17144837789642
H         6.40938944028164   -5.26143967329584   -0.41234317475139
H         8.62632108178403   -3.65439592383340    0.93058419496801
41
 energy: -67.876921554667 gnorm: 0.004753254052 xtb: 6.4.1 (afa7bdf)
C         2.96391688765349   -1.53948022207730   -1.22057544199086
C         2.83543168190670   -2.12573081466961   -2.47770667592753
C         3.74832734797322   -3.08770351991664   -2.88261415382106
C         4.78589734832656   -3.48764886476537   -2.06397571881763
C         4.92330491699670   -2.91431350581022   -0.79614105790568
C         4.01129445494776   -1.94020259163629   -0.39502662956956
H         4.11511236063951   -1.48603370402065    0.57752273136563
H         2.03529637753193   -1.84259095957679   -3.14234703016348
H         3.63694421464007   -3.53157419733101   -3.85983379281997
H         5.47511883651467   -4.24082413138133   -2.40604174064067
C         5.98205989543752   -3.29270840510852    0.17101389542055
O         2.13591436823996   -0.59347533450227   -0.70775595501199
C         1.05036653927263   -0.13650091995412   -1.49081448753555
H         1.39361520657861    0.33400043789714   -2.41655484340543
H         0.54668688126890    0.60497108910617   -0.87308291458178
H         0.35470854854710   -0.94759862102008   -1.72439594761046
C         6.98456070988679   -4.33476455210621   -0.23958967707813
O         5.99571828741486   -2.77991291048415    1.28490319603582
C         8.04883087046074   -4.58061440603726    0.85674981759760
O         7.49466745247968   -4.89155056975375    2.07246407847155
Li        6.37595269167908   -3.88965657122662    2.76352551642005
C         9.05230246677541   -5.66458206584519    0.47810235717004
C         9.03845936424044   -6.40711272551932   -0.69454668182124
C        10.04602352529459   -5.95563134574747    1.41071825014722
C        10.99587771722475   -6.91911697959034    1.16530323072638