! Job execution by suborca V 5.02 !
Job started from clu.thch.uni-bonn.de, running /software/cluster/orca_5_0_2_linux_x86-64_openmpi411/orca from /software/cluster/orca_5_0_2_linux_x86-64_openmpi411 on boar230 in /tmp1/rothe/Diketon_freqopt__ARrzBl
Going to copy the following really necessary files:  

                                 *****************
                                 * O   R   C   A *
                                 *****************

                                            #,                                       
                                            ###                                      
                                            ####                                     
                                            #####                                    
                                            ######                                   
                                           ########,                                 
                                     ,,################,,,,,                         
                               ,,#################################,,                 
                          ,,##########################################,,             
                       ,#########################################, ''#####,          
                    ,#############################################,,   '####,        
                  ,##################################################,,,,####,       
                ,###########''''           ''''###############################       
              ,#####''   ,,,,##########,,,,          '''####'''          '####       
            ,##' ,,,,###########################,,,                        '##       
           ' ,,###''''                  '''############,,,                           
         ,,##''                                '''############,,,,        ,,,,,,###''
      ,#''                                            '''#######################'''  
     '                                                          ''''####''''         
             ,#######,   #######,   ,#######,      ##                                
            ,#'     '#,  ##    ##  ,#'     '#,    #''#        ######   ,####,        
            ##       ##  ##   ,#'  ##            #'  '#       #        #'  '#        
            ##       ##  #######   ##           ,######,      #####,   #    #        
            '#,     ,#'  ##    ##  '#,     ,#' ,#      #,         ##   #,  ,#        
             '#######'   ##     ##  '#######'  #'      '#     #####' # '####'        



                  #######################################################
                  #                        -***-                        #
                  #          Department of theory and spectroscopy      #
                  #    Directorship and core code : Frank Neese         #
                  #        Max Planck Institute fuer Kohlenforschung    #
                  #                Kaiser Wilhelm Platz 1               #
                  #                 D-45470 Muelheim/Ruhr               #
                  #                      Germany                        #
                  #                                                     #
                  #                  All rights reserved                #
                  #                        -***-                        #
                  #######################################################


                         Program Version 5.0.2 -  RELEASE  -


 With contributions from (in alphabetic order):
   Daniel Aravena         : Magnetic Suceptibility
   Michael Atanasov       : Ab Initio Ligand Field Theory (pilot matlab implementation)
   Alexander A. Auer      : GIAO ZORA, VPT2 properties, NMR spectrum
   Ute Becker             : Parallelization
   Giovanni Bistoni       : ED, misc. LED, open-shell LED, HFLD
   Martin Brehm           : Molecular dynamics
   Dmytro Bykov           : SCF Hessian
   Vijay G. Chilkuri      : MRCI spin determinant printing, contributions to CSF-ICE
   Dipayan Datta          : RHF DLPNO-CCSD density
   Achintya Kumar Dutta   : EOM-CC, STEOM-CC
   Dmitry Ganyushin       : Spin-Orbit,Spin-Spin,Magnetic field MRCI
   Miquel Garcia          : C-PCM and meta-GGA Hessian, CC/C-PCM, Gaussian charge scheme
   Yang Guo               : DLPNO-NEVPT2, F12-NEVPT2, CIM, IAO-localization
   Andreas Hansen         : Spin unrestricted coupled pair/coupled cluster methods
   Benjamin Helmich-Paris : MC-RPA, TRAH-SCF, COSX integrals
   Lee Huntington         : MR-EOM, pCC
   Robert Izsak           : Overlap fitted RIJCOSX, COSX-SCS-MP3, EOM
   Marcus Kettner         : VPT2
   Christian Kollmar      : KDIIS, OOCD, Brueckner-CCSD(T), CCSD density, CASPT2, CASPT2-K
   Simone Kossmann        : Meta GGA functionals, TD-DFT gradient, OOMP2, MP2 Hessian
   Martin Krupicka        : Initial AUTO-CI
   Lucas Lang             : DCDCAS
   Marvin Lechner         : AUTO-CI (C++ implementation), FIC-MRCC
   Dagmar Lenk            : GEPOL surface, SMD
   Dimitrios Liakos       : Extrapolation schemes; Compound Job, initial MDCI parallelization
   Dimitrios Manganas     : Further ROCIS development; embedding schemes
   Dimitrios Pantazis     : SARC Basis sets
   Anastasios Papadopoulos: AUTO-CI, single reference methods and gradients
   Taras Petrenko         : DFT Hessian,TD-DFT gradient, ASA, ECA, R-Raman, ABS, FL, XAS/XES, NRVS
   Peter Pinski           : DLPNO-MP2, DLPNO-MP2 Gradient
   Christoph Reimann      : Effective Core Potentials
   Marius Retegan         : Local ZFS, SOC
   Christoph Riplinger    : Optimizer, TS searches, QM/MM, DLPNO-CCSD(T), (RO)-DLPNO pert. Triples
   Tobias Risthaus        : Range-separated hybrids, TD-DFT gradient, RPA, STAB
   Michael Roemelt        : Original ROCIS implementation
   Masaaki Saitow         : Open-shell DLPNO-CCSD energy and density
   Barbara Sandhoefer     : DKH picture change effects
   Avijit Sen             : IP-ROCIS
   Kantharuban Sivalingam : CASSCF convergence, NEVPT2, FIC-MRCI
   Bernardo de Souza      : ESD, SOC TD-DFT
   Georgi Stoychev        : AutoAux, RI-MP2 NMR, DLPNO-MP2 response
   Willem Van den Heuvel  : Paramagnetic NMR
   Boris Wezisla          : Elementary symmetry handling
   Frank Wennmohs         : Technical directorship


 We gratefully acknowledge several colleagues who have allowed us to
 interface, adapt or use parts of their codes:
   Stefan Grimme, W. Hujo, H. Kruse, P. Pracht,  : VdW corrections, initial TS optimization,
                  C. Bannwarth, S. Ehlert          DFT functionals, gCP, sTDA/sTD-DF
   Ed Valeev, F. Pavosevic, A. Kumar             : LibInt (2-el integral package), F12 methods
   Garnet Chan, S. Sharma, J. Yang, R. Olivares  : DMRG
   Ulf Ekstrom                                   : XCFun DFT Library
   Mihaly Kallay                                 : mrcc  (arbitrary order and MRCC methods)
   Jiri Pittner, Ondrej Demel                    : Mk-CCSD
   Frank Weinhold                                : gennbo (NPA and NBO analysis)
   Christopher J. Cramer and Donald G. Truhlar   : smd solvation model
   Lars Goerigk                                  : TD-DFT with DH, B97 family of functionals
   V. Asgeirsson, H. Jonsson                     : NEB implementation
   FAccTs GmbH                                   : IRC, NEB, NEB-TS, DLPNO-Multilevel, CI-OPT
                                                   MM, QMMM, 2- and 3-layer-ONIOM, Crystal-QMMM,
                                                   LR-CPCM, SF, NACMEs, symmetry and pop. for TD-DFT,
                                                   nearIR, NL-DFT gradient (VV10), updates on ESD,
                                                   ML-optimized integration grids
   S Lehtola, MJT Oliveira, MAL Marques          : LibXC Library
   Liviu Ungur et al                             : ANISO software


 Your calculation uses the libint2 library for the computation of 2-el integrals
 For citations please refer to: http://libint.valeyev.net

 Your ORCA version has been built with support for libXC version: 5.1.0
 For citations please refer to: https://tddft.org/programs/libxc/

 This ORCA versions uses:
   CBLAS   interface :  Fast vector & matrix operations
   LAPACKE interface :  Fast linear algebra routines
   SCALAPACK package :  Parallel linear algebra routines
   Shared memory     :  Shared parallel matrices
   BLAS/LAPACK       :  OpenBLAS 0.3.15  USE64BITINT DYNAMIC_ARCH NO_AFFINITY Barcelona SINGLE_THREADED
        Core in use  :  Barcelona
   Copyright (c) 2011-2014, The OpenBLAS Project


Your calculation utilizes the atom-pairwise dispersion correction
with the Becke-Johnson damping scheme (D3BJ)
Cite in your paper:
S.Grimme, S.Ehrlich, L.Goerigk, J Comput Chem, (2011), 32, 1456–1465 
S.Grimme, J.Antony, S.Ehrlich and H.Krieg, J.Chem.Phys., 132, (2010), 154104 
   

================================================================================

----- Orbital basis set information -----
Your calculation utilizes the basis: def2-TZVP
   F. Weigend and R. Ahlrichs, Phys. Chem. Chem. Phys. 7, 3297 (2005).

----- AuxJ basis set information -----
Your calculation utilizes the auxiliary basis: def2/J
   F. Weigend, Phys. Chem. Chem. Phys. 8, 1057 (2006).

================================================================================
                                        WARNINGS
                       Please study these warnings very carefully!
================================================================================


WARNING: Geometry Optimization
  ===> : Switching off AutoStart
         For restart on a previous wavefunction, please use MOREAD

INFO   : the flag for use of the SHARK integral package has been found!

================================================================================
                                       INPUT FILE
================================================================================
NAME = Diketon_freqopt.inp
|  1> ! TPSS D3BJ def2-TZVP RI def2/J CPCM(THF)
|  2> ! Opt numfreq Pal8
|  3> 
|  4> * xyz 0 1
|  5>   C   -2.98364437959139      2.91302546439950     -0.41648296886261
|  6>   C   -3.78084083191271      1.62020807643260     -0.92198214130048
|  7>   C   -2.73595278261430      0.84100681428933     -0.41852984806793
|  8>   C   -1.88569423527140      1.33336327500928      0.56601290703746
|  9>   C   -2.09385421942128      2.62746416726796      1.07475398971946
| 10>   C   -3.14497422834089      3.40788705864620      0.58547403438278
| 11>   O   -4.97014202287037      3.75720213541256     -0.84535438770212
| 12>   C   -5.84307391979623      3.27700651707154     -1.88751168271717
| 13>   H   -5.27193793818071      3.05191411824163     -2.79462868792760
| 14>   H   -6.54054894843627      4.09250170746751     -2.07597134827521
| 15>   H   -6.38612228415103      2.38572987667716     -1.55542765094981
| 16>   C   -1.20999267160027      3.21444685280213      2.12238054327142
| 17>   C   0.17107436294786      2.61929650174585      2.32174127104485
| 18>   C   1.06568679231426      2.78079368962211      1.05763474083504
| 19>   H   0.09270751285891      1.55156469134834      2.55803371141054
| 20>   H   0.62936354207097      3.12829700350138      3.17389281596524
| 21>   H   -3.29834028533016      4.40987325806102      0.97341265045963
| 22>   H   -4.42175506689022      1.21967188428884     -1.69868290664809
| 23>   H   -2.58937201004153     -0.16157896471721     -0.80941322681922
| 24>   H   -1.08303133585186      0.71073060689528      0.94553840956066
| 25>   C   1.05476302834997      4.22203709846355      0.58704210412369
| 26>   O   -1.57257617412926      4.19037356642074      2.78056037086793
| 27>   C   2.47013976854753      2.25451303983235      1.37219873015838
| 28>   H   0.64337418904555      2.17095942239717      0.25481835043833
| 29>   C   3.36220716223960      2.14408278922487      0.14673704454062
| 30>   H   2.39621179795859      1.25286595943282      1.81807424059608
| 31>   H   2.96292619681608      2.87796479380419      2.12682951370453
| 32>   C   1.68500780434285      5.23504074800500      1.32206092047195
| 33>   C   0.34715737514399      4.57289836083923     -0.56981229814448
| 34>   C   0.26614456006167      5.89753895194020     -0.98253752119987
| 35>   C   0.89808815055788      6.90629578468303     -0.24248875438690
| 36>   C   1.61287303215993      6.56320024239637      0.91515899374120
| 37>   C   0.77981427489404      8.30745008605276     -0.71613995829407
| 38>   O   0.16767362197013      8.65394927600811     -1.71922781662544
| 39>   O   1.42548488882362      9.18336843300298      0.08636760207487
| 40>   C   1.34592392655537     10.57735165810801     -0.31896014217646
| 41>   H   1.91200428923372     11.12084249390906      0.43575960188703
| 42>   H   0.30276512188860     10.89973026483771     -0.33380907985693
| 43>   H   1.79134714138547     10.70162725631766     -1.30811119303891
| 44>   C   4.79527375696700      1.77613771387372      0.35172929413480
| 45>   O   2.91165517300883      2.33215455379482     -0.98241381650441
| 46>   C   5.31827322237861      1.49998681593057      1.62770998086911
| 47>   C   5.62460423069644      1.69675649735356     -0.77147075439982
| 48>   C   6.65786651059027      1.14736057562394      1.75636163205385
| 49>   C   7.49253413536486      1.06809273218939      0.63862333914837
| 50>   C   6.97006272263741      1.34610781934081     -0.63329833680681
| 51>   H   5.21947129517334      1.90920773462348     -1.75578878056655
| 52>   H   4.69039872094216      1.55350270384477      2.50978459928481
| 53>   H   7.06875371602865      0.92910171589985      2.73772960582572
| 54>   H   8.53320505857468      0.79331794574854      0.76510874075590
| 55>   O   7.70050162868908      1.29802065700106     -1.78839996651287
| 56>   C   9.09101074539990      0.93386973809167     -1.67554971203644
| 57>   H   9.62984701335404      1.65711930529684     -1.05404847866404
| 58>   H   9.47663620823890      0.95431669512750     -2.69432680721068
| 59>   H   9.19298731898857     -0.07187610001581     -1.25393328606316
| 60>   H   -0.14360491863594      3.79552392897040     -1.14847344299974
| 61>   H   -0.28493091428908      6.16506062618701     -1.87844718166760
| 62>   H   2.23369787447168      4.98921746404014      2.22722680989887
| 63>   H   2.10502129568388      7.33572591693897      1.49549562816230
| 64> *
| 65> 
| 66>                          ****END OF INPUT****
================================================================================

                       *****************************
                       * Geometry Optimization Run *
                       *****************************

Geometry optimization settings:
Update method            Update   .... BFGS
Choice of coordinates    CoordSys .... Z-matrix Internals
Initial Hessian          InHess   .... Almoef's Model

Convergence Tolerances:
Energy Change            TolE     ....  5.0000e-06 Eh
Max. Gradient            TolMAXG  ....  3.0000e-04 Eh/bohr
RMS Gradient             TolRMSG  ....  1.0000e-04 Eh/bohr
Max. Displacement        TolMAXD  ....  4.0000e-03 bohr
RMS Displacement         TolRMSD  ....  2.0000e-03 bohr
Strict Convergence                ....  False
------------------------------------------------------------------------------
                        ORCA OPTIMIZATION COORDINATE SETUP
------------------------------------------------------------------------------

The optimization will be done in new redundant internal coordinates
Making redundant internal coordinates   ...  (new redundants) done
Evaluating the initial hessian          ...  (Almloef) done
Evaluating the coordinates              ...  done
Calculating the B-matrix                .... done
Calculating the G-matrix                .... done
Diagonalizing the G-matrix              .... done
Small eigenvalue found = 8.296e-04
Small eigenvalue found = 1.353e-03
Small eigenvalue found = 1.712e-03
Small eigenvalue found = 5.289e-03
Small eigenvalue found = 5.857e-03
Small eigenvalue found = 1.063e-02
Small eigenvalue found = 1.448e-02
Small eigenvalue found = 1.921e-02
Small eigenvalue found = 2.030e-02
Small eigenvalue found = 2.747e-02
Small eigenvalue found = 2.906e-02
The first mode is                       ....  240
The number of degrees of freedom        ....  171

    -----------------------------------------------------------------
                    Redundant Internal Coordinates


    -----------------------------------------------------------------
         Definition                    Initial Value    Approx d2E/dq
    -----------------------------------------------------------------
      1. B(C   1,C   0)                  1.6008         0.288062   
      2. B(C   2,C   1)                  1.3973         0.608294   
      3. B(C   3,C   2)                  1.3909         0.622672   
      4. B(C   4,C   3)                  1.4060         0.589124   
      5. B(C   4,C   0)                  1.7598         0.160573   
      6. B(C   5,C   0)                  1.1291         1.629340   
      7. B(C   5,C   4)                  1.3976         0.607576   
      8. B(O   6,C   5)                  2.3453         0.016739   
      9. B(O   6,C   1)                  2.4468         0.011528   
     10. B(O   6,C   0)                  2.2006         0.028483   
     11. B(C   7,O   6)                  1.4418         0.462685   
     12. B(C   7,C   1)                  2.8160         0.003316   
     13. B(H   8,C   7)                  1.0953         0.353132   
     14. B(H   8,C   1)                  2.7893         0.000700   
     15. B(H   9,C   7)                  1.0895         0.360756   
     16. B(H  10,C   1)                  2.7883         0.000703   
     17. B(H  10,C   7)                  1.0952         0.353232   
     18. B(C  11,C   4)                  1.4911         0.431015   
     19. B(C  12,C  11)                  1.5170         0.391846   
     20. B(C  13,C  12)                  1.5570         0.338247   
     21. B(H  14,C  12)                  1.0964         0.351771   
     22. B(H  15,C  12)                  1.0933         0.355780   
     23. B(H  16,C   5)                  1.0854         0.366298   
     24. B(H  16,O   6)                  2.5552         0.001483   
     25. B(H  17,H  10)                  2.2889         0.000843   
     26. B(H  17,H   8)                  2.2980         0.000815   
     27. B(H  17,C   1)                  1.0837         0.368495   
     28. B(H  17,C   7)                  2.5077         0.001971   
     29. B(H  17,O   6)                  2.7328         0.000772   
     30. B(H  18,C   2)                  1.0860         0.365395   
     31. B(H  19,C   3)                  1.0844         0.367550   
     32. B(C  20,C  13)                  1.5162         0.393051   
     33. B(O  21,C  11)                  1.2317         1.000974   
     34. B(C  22,C  13)                  1.5325         0.370224   
     35. B(H  23,C  13)                  1.0931         0.356087   
     36. B(C  24,C  22)                  1.5198         0.387865   
     37. B(H  25,C  22)                  1.0989         0.348525   
     38. B(H  26,C  22)                  1.0959         0.352378   
     39. B(C  27,C  20)                  1.4013         0.599394   
     40. B(C  28,C  20)                  1.4008         0.600587   
     41. B(C  29,C  28)                  1.3898         0.625228   
     42. B(C  30,C  29)                  1.4016         0.598627   
     43. B(C  31,C  30)                  1.4031         0.595370   
     44. B(C  31,C  27)                  1.3910         0.622588   
     45. B(C  32,C  30)                  1.4838         0.442729   
     46. B(O  33,C  32)                  1.2251         1.025421   
     47. B(O  34,C  32)                  1.3521         0.643223   
     48. B(C  35,O  34)                  1.4539         0.442523   
     49. B(H  36,C  35)                  1.0888         0.361724   
     50. B(H  37,C  35)                  1.0919         0.357545   
     51. B(H  38,C  35)                  1.0919         0.357583   
     52. B(C  39,C  24)                  1.4937         0.426895   
     53. B(O  40,C  24)                  1.2302         1.006592   
     54. B(C  41,C  39)                  1.4064         0.588301   
     55. B(C  42,C  39)                  1.3985         0.605694   
     56. B(C  43,C  41)                  1.3912         0.622073   
     57. B(C  44,C  43)                  1.3972         0.608388   
     58. B(C  45,C  44)                  1.4029         0.595937   
     59. B(C  45,C  42)                  1.3972         0.608378   
     60. B(H  46,C  42)                  1.0854         0.366202   
     61. B(H  47,C  41)                  1.0840         0.368069   
     62. B(H  48,C  43)                  1.0861         0.365336   
     63. B(H  49,C  44)                  1.0837         0.368475   
     64. B(O  50,C  45)                  1.3675         0.607770   
     65. B(C  51,O  50)                  1.4418         0.462587   
     66. B(H  52,C  51)                  1.0953         0.353147   
     67. B(H  53,C  51)                  1.0895         0.360749   
     68. B(H  54,C  51)                  1.0953         0.353155   
     69. B(H  55,C  28)                  1.0863         0.365053   
     70. B(H  56,C  29)                  1.0853         0.366353   
     71. B(H  57,C  27)                  1.0867         0.364555   
     72. B(H  58,C  31)                  1.0843         0.367664   
     73. A(C   1,C   0,C   4)          112.8510         0.302676   
     74. A(C   4,C   0,O   6)          133.1411         0.214522   
     75. A(C   1,C   0,O   6)           78.3879         0.232274   
     76. A(C   4,C   0,C   5)           52.5119         0.405287   
     77. A(C   1,C   0,C   5)          124.2666         0.450018   
     78. A(C   5,C   0,O   6)           82.8672         0.301076   
     79. A(O   6,C   1,H  17)           93.3125         0.195763   
     80. A(C   2,C   1,H  17)          119.6284         0.353147   
     81. A(C   7,C   1,H  17)           62.5240         0.170195   
     82. A(C   0,C   1,H  17)          145.0186         0.312034   
     83. A(O   6,C   1,C   7)           30.7898         0.131502   
     84. A(C   0,C   1,O   6)           61.7588         0.205749   
     85. A(C   0,C   1,C   2)           87.9474         0.377855   
     86. A(C   2,C   1,O   6)          147.0582         0.227271   
     87. A(C   0,C   1,C   7)           89.8747         0.177789   
     88. A(C   1,C   2,C   3)          120.9815         0.432915   
     89. A(C   1,C   2,H  18)          119.0817         0.352642   
     90. A(C   3,C   2,H  18)          119.9364         0.354040   
     91. A(C   2,C   3,C   4)          119.4340         0.430431   
     92. A(C   4,C   3,H  19)          120.7579         0.351087   
     93. A(C   2,C   3,H  19)          119.7982         0.354393   
     94. A(C   3,C   4,C   5)          119.9095         0.428540   
     95. A(C   3,C   4,C  11)          121.9244         0.403154   
     96. A(C   0,C   4,C   3)           85.2734         0.340237   
     97. A(C   5,C   4,C  11)          118.1617         0.405354   
     98. A(C   0,C   4,C   5)           39.8685         0.341997   
     99. A(C   0,C   4,C  11)          146.2215         0.323081   
    100. A(C   0,C   5,O   6)           68.5978         0.277036   
    101. A(C   0,C   5,C   4)           87.6196         0.516453   
    102. A(O   6,C   5,H  16)           88.3149         0.205010   
    103. A(C   0,C   5,H  16)          137.9018         0.418691   
    104. A(C   4,C   5,O   6)          151.8885         0.239410   
    105. A(C   4,C   5,H  16)          119.7786         0.352719   
    106. A(C   0,O   6,C   5)           28.5349         0.163624   
    107. A(C   0,O   6,C   1)           39.8532         0.157583   
    108. A(C   1,O   6,C   7)           88.8979         0.217898   
    109. A(C   0,O   6,C   7)          124.0318         0.247183   
    110. A(C   5,O   6,C   7)          149.6050         0.229252   
    111. A(C   1,O   6,C   5)           60.7100         0.149809   
    112. A(H   8,C   7,H  10)          110.0240         0.289075   
    113. A(C   1,C   7,H  10)           77.3123         0.169421   
    114. A(O   6,C   7,H  10)          110.6140         0.332896   
    115. A(O   6,C   7,H   8)          110.5712         0.332880   
    116. A(H   8,C   7,H   9)          110.1435         0.290031   
    117. A(C   1,C   7,H   8)           77.3610         0.169416   
    118. A(C   1,C   7,H   9)          165.5805         0.169805   
    119. A(O   6,C   7,H   9)          105.2683         0.334062   
    120. A(C   1,C   7,O   6)           60.3123         0.187029   
    121. A(H   9,C   7,H  10)          110.1294         0.290044   
    122. A(C   4,C  11,C  12)          118.5252         0.375457   
    123. A(C  12,C  11,O  21)          120.5721         0.432792   
    124. A(C   4,C  11,O  21)          120.8548         0.440286   
    125. A(C  11,C  12,H  15)          107.5419         0.326227   
    126. A(C  13,C  12,H  14)          108.4849         0.317871   
    127. A(C  11,C  12,H  14)          110.2015         0.325619   
    128. A(C  11,C  12,C  13)          112.0669         0.360167   
    129. A(H  14,C  12,H  15)          108.3840         0.289226   
    130. A(C  13,C  12,H  15)          110.1003         0.318459   
    131. A(C  22,C  13,H  23)          108.2553         0.323245   
    132. A(C  20,C  13,H  23)          107.4334         0.326438   
    133. A(C  12,C  13,H  23)          108.4476         0.318504   
    134. A(C  20,C  13,C  22)          113.3763         0.365960   
    135. A(C  12,C  13,C  22)          108.9231         0.356705   
    136. A(C  12,C  13,C  20)          110.2700         0.360355   
    137. A(C  13,C  20,C  28)          119.8731         0.398010   
    138. A(C  13,C  20,C  27)          121.4085         0.397871   
    139. A(C  27,C  20,C  28)          118.6411         0.428979   
    140. A(H  25,C  22,H  26)          105.6288         0.288372   
    141. A(C  24,C  22,H  26)          109.4290         0.325165   
    142. A(C  13,C  22,H  26)          110.9823         0.322690   
    143. A(C  24,C  22,H  25)          107.4834         0.324578   
    144. A(C  13,C  22,H  25)          109.5521         0.322109   
    145. A(C  13,C  22,C  24)          113.4146         0.365129   
    146. A(C  39,C  24,O  40)          120.9984         0.439967   
    147. A(C  22,C  24,O  40)          120.9328         0.432433   
    148. A(C  22,C  24,C  39)          118.0595         0.374175   
    149. A(C  20,C  27,C  31)          120.8971         0.431759   
    150. A(C  31,C  27,H  57)          119.0693         0.353894   
    151. A(C  20,C  27,H  57)          120.0322         0.351627   
    152. A(C  20,C  28,C  29)          120.8930         0.432242   
    153. A(C  29,C  28,H  55)          119.8376         0.354230   
    154. A(C  20,C  28,H  55)          119.2693         0.351827   
    155. A(C  28,C  29,C  30)          120.1902         0.431988   
    156. A(C  30,C  29,H  56)          119.1679         0.351844   
    157. A(C  28,C  29,H  56)          120.6419         0.354443   
    158. A(C  31,C  30,C  32)          122.3362         0.405822   
    159. A(C  29,C  30,C  32)          118.3684         0.406213   
    160. A(C  29,C  30,C  31)          119.2951         0.428210   
    161. A(C  27,C  31,C  30)          120.0828         0.431237   
    162. A(C  30,C  31,H  58)          119.9052         0.351732   
    163. A(C  27,C  31,H  58)          120.0112         0.354404   
    164. A(O  33,C  32,O  34)          122.7747         0.472528   
    165. A(C  30,C  32,O  34)          112.5955         0.408761   
    166. A(C  30,C  32,O  33)          124.6297         0.444360   
    167. A(C  32,O  34,C  35)          115.4377         0.406097   
    168. A(O  34,C  35,H  36)          104.8865         0.331750   
    169. A(H  37,C  35,H  38)          110.1077         0.290195   
    170. A(H  36,C  35,H  38)          111.0413         0.290725   
    171. A(O  34,C  35,H  38)          109.8375         0.331118   
    172. A(H  36,C  35,H  37)          111.0234         0.290720   
    173. A(O  34,C  35,H  37)          109.8244         0.331113   
    174. A(C  41,C  39,C  42)          119.8031         0.428195   
    175. A(C  24,C  39,C  42)          118.2113         0.404446   
    176. A(C  24,C  39,C  41)          121.9830         0.402372   
    177. A(C  43,C  41,H  47)          119.6686         0.354420   
    178. A(C  39,C  41,H  47)          120.8746         0.351088   
    179. A(C  39,C  41,C  43)          119.4560         0.430249   
    180. A(C  45,C  42,H  46)          119.8817         0.352782   
    181. A(C  39,C  42,H  46)          119.7290         0.352518   
    182. A(C  39,C  42,C  45)          120.3893         0.430781   
    183. A(C  44,C  43,H  48)          119.0413         0.352642   
    184. A(C  41,C  43,H  48)          119.9202         0.353973   
    185. A(C  41,C  43,C  44)          121.0386         0.432852   
    186. A(C  45,C  44,H  49)          120.9100         0.351920   
    187. A(C  43,C  44,H  49)          119.6464         0.353153   
    188. A(C  43,C  44,C  45)          119.4436         0.429528   
    189. A(C  44,C  45,O  50)          124.0507         0.426648   
    190. A(C  42,C  45,O  50)          116.0804         0.428231   
    191. A(C  42,C  45,C  44)          119.8689         0.429527   
    192. A(C  45,O  50,C  51)          117.2513         0.405211   
    193. A(H  53,C  51,H  54)          110.1342         0.290034   
    194. A(H  52,C  51,H  54)          110.0052         0.289067   
    195. A(O  50,C  51,H  54)          110.5993         0.332872   
    196. A(H  52,C  51,H  53)          110.1250         0.290033   
    197. A(O  50,C  51,H  53)          105.2731         0.334049   
    198. A(O  50,C  51,H  52)          110.6147         0.332871   
    199. D(C   7,C   1,C   0,O   6)     13.1056         0.008092   
    200. D(H  17,C   1,C   0,C   4)   -178.6446         0.008092   
    201. D(C   2,C   1,C   0,C   4)    -34.3874         0.008092   
    202. D(O   6,C   1,C   0,C   4)    132.1399         0.008092   
    203. D(C   2,C   1,C   0,O   6)   -166.5273         0.008092   
    204. D(C   7,C   1,C   0,C   5)     86.0447         0.008092   
    205. D(C   7,C   1,C   0,C   4)    145.2454         0.008092   
    206. D(H  17,C   1,C   0,C   5)    122.1547         0.008092   
    207. D(C   2,C   1,C   0,C   5)    -93.5882         0.008092   
    208. D(O   6,C   1,C   0,C   5)     72.9391         0.008092   
    209. D(H  17,C   1,C   0,O   6)     49.2156         0.008092   
    210. D(H  18,C   2,C   1,C   0)   -157.9398         0.033675   
    211. D(C   3,C   2,C   1,C   0)     21.8204         0.033675   
    212. D(H  18,C   2,C   1,H  17)     -0.6004         0.033675   
    213. D(C   3,C   2,C   1,O   6)     -0.3550         0.033675   
    214. D(H  18,C   2,C   1,O   6)    179.8848         0.033675   
    215. D(C   3,C   2,C   1,H  17)    179.1597         0.033675   
    216. D(H  19,C   3,C   2,H  18)     -0.4597         0.026843   
    217. D(H  19,C   3,C   2,C   1)    179.7822         0.026843   
    218. D(C   4,C   3,C   2,H  18)   -179.3226         0.026843   
    219. D(C   4,C   3,C   2,C   1)      0.9193         0.026843   
    220. D(C  11,C   4,C   0,C   1)   -178.7799         0.003098   
    221. D(C  11,C   4,C   0,C   5)    -62.2412         0.003098   
    222. D(C  11,C   4,C   0,O   6)    -83.2960         0.003098   
    223. D(C   0,C   4,C   3,H  19)    160.2634         0.025936   
    224. D(C   5,C   4,C   0,O   6)    -21.0548         0.003098   
    225. D(C   0,C   4,C   3,C   2)    -20.8849         0.025936   
    226. D(C   3,C   4,C   0,O   6)    130.5289         0.003098   
    227. D(C   3,C   4,C   0,C   1)     35.0450         0.003098   
    228. D(C   5,C   4,C   0,C   1)   -116.5387         0.003098   
    229. D(C   3,C   4,C   0,C   5)    151.5837         0.003098   
    230. D(C  11,C   4,C   3,C   2)   -179.4991         0.025936   
    231. D(C   5,C   4,C   3,H  19)   -179.1318         0.025936   
    232. D(C   5,C   4,C   3,C   2)     -0.2802         0.025936   
    233. D(C  11,C   4,C   3,H  19)      1.6492         0.025936   
    234. D(O   6,C   5,C   0,C   4)   -164.6813         0.283231   
    235. D(O   6,C   5,C   4,C   0)     31.4678         0.029757   
    236. D(H  16,C   5,C   4,C  11)     -0.2096         0.029757   
    237. D(C   0,C   5,C   4,C  11)    146.0780         0.029757   
    238. D(H  16,C   5,C   4,C   3)   -179.4577         0.029757   
    239. D(C   0,C   5,C   4,C   3)    -33.1700         0.029757   
    240. D(O   6,C   5,C   4,C  11)    177.5458         0.029757   
    241. D(O   6,C   5,C   4,C   3)     -1.7022         0.029757   
    242. D(H  16,C   5,C   4,C   0)   -146.2877         0.029757   
    243. D(O   6,C   5,C   0,C   1)    -70.6878         0.283231   
    244. D(H  16,C   5,C   0,O   6)    -61.2553         0.283231   
    245. D(H  16,C   5,C   0,C   4)    134.0634         0.283231   
    246. D(H  16,C   5,C   0,C   1)   -131.9431         0.283231   
    247. D(C   4,C   5,C   0,C   1)     93.9935         0.283231   
    248. D(C   4,C   5,C   0,O   6)    164.6813         0.283231   
    249. D(C   0,O   6,C   1,H  17)   -154.2261         0.001513   
    250. D(C   0,O   6,C   1,C   2)     25.3514         0.001513   
    251. D(C   7,O   6,C   1,H  17)     -0.5188         0.001513   
    252. D(C   7,O   6,C   1,C   0)    153.7073         0.001513   
    253. D(C   5,O   6,C   0,C   4)     16.6958         0.001564   
    254. D(C   5,O   6,C   0,C   1)    127.2293         0.001564   
    255. D(C   1,O   6,C   0,C   5)   -127.2293         0.001564   
    256. D(C   7,O   6,C   1,C   2)    179.0587         0.001513   
    257. D(C   1,O   6,C   0,C   4)   -110.5336         0.001564   
    258. D(C   7,O   6,C   0,C   5)   -159.5328         0.001564   
    259. D(C   7,O   6,C   0,C   1)    -32.3035         0.001564   
    260. D(C   0,O   6,C   1,C   7)   -153.7073         0.001513   
    261. D(C   7,O   6,C   0,C   4)   -142.8371         0.001564   
    262. D(C   1,O   6,C   5,C   4)      1.7356         0.001523   
    263. D(C   1,O   6,C   5,C   0)     35.8051         0.001523   
    264. D(C   0,O   6,C   5,H  16)    143.9816         0.001523   
    265. D(C   0,O   6,C   5,C   4)    -34.0695         0.001523   
    266. D(C   7,O   6,C   5,C   4)      0.8718         0.001523   
    267. D(C   7,O   6,C   5,C   0)     34.9413         0.001523   
    268. D(C   7,O   6,C   5,H  16)    178.9229         0.001523   
    269. D(C   5,O   6,C   1,C   7)   -179.5629         0.001513   
    270. D(C   5,O   6,C   1,H  17)    179.9183         0.001513   
    271. D(C   5,O   6,C   1,C   2)     -0.5042         0.001513   
    272. D(C   1,O   6,C   5,H  16)    179.7867         0.001523   
    273. D(C   5,O   6,C   1,C   0)    -25.8556         0.001513   
    274. D(C   1,C   7,O   6,C   5)      0.7535         0.024313   
    275. D(C   1,C   7,O   6,C   0)     20.0306         0.024313   
    276. D(H  10,C   7,O   6,C   1)     61.0161         0.024313   
    277. D(H  10,C   7,O   6,C   0)     81.0467         0.024313   
    278. D(H   9,C   7,O   6,C   5)   -179.2956         0.024313   
    279. D(H   9,C   7,O   6,C   1)    179.9509         0.024313   
    280. D(H   9,C   7,O   6,C   0)   -160.0185         0.024313   
    281. D(H   8,C   7,O   6,C   5)    -60.3661         0.024313   
    282. D(H   8,C   7,O   6,C   1)    -61.1195         0.024313   
    283. D(H  10,C   7,C   2,H  18)     56.2182         0.001500   
    284. D(H  10,C   7,C   2,C   3)   -124.3872         0.001500   
    285. D(H   9,C   7,C   2,H  18)    179.7170         0.001500   
    286. D(H   9,C   7,C   2,C   3)     -0.8885         0.001500   
    287. D(H   8,C   7,C   2,H  18)    -57.7337         0.001500   
    288. D(H   8,C   7,C   2,C   3)    121.6608         0.001500   
    289. D(O   6,C   7,C   2,H  18)    179.1709         0.001500   
    290. D(O   6,C   7,C   2,C   3)     -1.4345         0.001500   
    291. D(H  10,C   7,C   1,O   6)   -122.9399         0.001501   
    292. D(H   8,C   7,O   6,C   0)    -41.0889         0.024313   
    293. D(H  10,C   7,C   1,H  17)     56.4763         0.001501   
    294. D(H  10,C   7,C   1,C   0)   -145.9087         0.001501   
    295. D(H   9,C   7,C   1,O   6)     -0.1901         0.001501   
    296. D(H   9,C   7,C   1,H  17)    179.2262         0.001501   
    297. D(H   9,C   7,C   1,C   0)    -23.1589         0.001501   
    298. D(H   8,C   7,C   1,O   6)    122.8436         0.001501   
    299. D(H   8,C   7,C   1,H  17)    -57.7401         0.001501   
    300. D(H  10,C   7,O   6,C   5)     61.7696         0.024313   
    301. D(H   8,C   7,C   1,C   0)     99.8748         0.001501   
    302. D(O   6,C   7,C   1,H  17)    179.4163         0.001501   
    303. D(O   6,C   7,C   1,C   0)    -22.9688         0.001501   
    304. D(O  21,C  11,C   4,C   5)     18.2399         0.013719   
    305. D(O  21,C  11,C   4,C   3)   -162.5280         0.013719   
    306. D(O  21,C  11,C   4,C   0)     58.2876         0.013719   
    307. D(C  12,C  11,C   4,C   5)   -159.2573         0.013719   
    308. D(C  12,C  11,C   4,C   3)     19.9747         0.013719   
    309. D(C  12,C  11,C   4,C   0)   -119.2096         0.013719   
    310. D(H  15,C  12,C  11,O  21)      6.7290         0.011418   
    311. D(H  15,C  12,C  11,C   4)   -175.7664         0.011418   
    312. D(H  14,C  12,C  11,O  21)    124.6828         0.011418   
    313. D(H  14,C  12,C  11,C   4)    -57.8126         0.011418   
    314. D(C  13,C  12,C  11,O  21)   -114.4061         0.011418   
    315. D(C  13,C  12,C  11,C   4)     63.0984         0.011418   
    316. D(H  23,C  13,C  12,H  15)    173.6893         0.009272   
    317. D(H  23,C  13,C  12,H  14)     55.2356         0.009272   
    318. D(H  23,C  13,C  12,C  11)    -66.6625         0.009272   
    319. D(C  22,C  13,C  12,H  15)     56.0796         0.009272   
    320. D(C  22,C  13,C  12,H  14)    -62.3741         0.009272   
    321. D(C  22,C  13,C  12,C  11)    175.7278         0.009272   
    322. D(C  20,C  13,C  12,H  15)    -68.9318         0.009272   
    323. D(C  20,C  13,C  12,H  14)    172.6146         0.009272   
    324. D(C  20,C  13,C  12,C  11)     50.7165         0.009272   
    325. D(C  27,C  20,C  13,C  12)     70.0632         0.011484   
    326. D(C  28,C  20,C  13,H  23)     11.3096         0.011484   
    327. D(C  28,C  20,C  13,C  22)    130.8758         0.011484   
    328. D(C  28,C  20,C  13,C  12)   -106.6950         0.011484   
    329. D(C  27,C  20,C  13,H  23)   -171.9322         0.011484   
    330. D(C  27,C  20,C  13,C  22)    -52.3660         0.011484   
    331. D(H  26,C  22,C  13,H  23)    176.1666         0.010956   
    332. D(H  26,C  22,C  13,C  20)     57.0714         0.010956   
    333. D(H  26,C  22,C  13,C  12)    -66.1020         0.010956   
    334. D(H  25,C  22,C  13,H  23)    -67.5766         0.010956   
    335. D(H  25,C  22,C  13,C  20)    173.3281         0.010956   
    336. D(H  25,C  22,C  13,C  12)     50.1548         0.010956   
    337. D(C  24,C  22,C  13,H  23)     52.5036         0.010956   
    338. D(C  24,C  22,C  13,C  20)    -66.5917         0.010956   
    339. D(C  24,C  22,C  13,C  12)    170.2350         0.010956   
    340. D(O  40,C  24,C  22,H  26)   -131.7615         0.011199   
    341. D(O  40,C  24,C  22,H  25)    113.9953         0.011199   
    342. D(O  40,C  24,C  22,C  13)     -7.2537         0.011199   
    343. D(C  39,C  24,C  22,H  26)     49.3392         0.011199   
    344. D(C  39,C  24,C  22,H  25)    -64.9040         0.011199   
    345. D(C  39,C  24,C  22,C  13)    173.8471         0.011199   
    346. D(H  57,C  27,C  20,C  28)    179.5368         0.024765   
    347. D(H  57,C  27,C  20,C  13)      2.7398         0.024765   
    348. D(C  31,C  27,C  20,C  28)     -0.0259         0.024765   
    349. D(C  31,C  27,C  20,C  13)   -176.8229         0.024765   
    350. D(H  55,C  28,C  20,C  27)    179.8761         0.024869   
    351. D(H  55,C  28,C  20,C  13)     -3.2763         0.024869   
    352. D(C  29,C  28,C  20,C  27)     -0.1553         0.024869   
    353. D(C  29,C  28,C  20,C  13)    176.6923         0.024869   
    354. D(H  56,C  29,C  28,H  55)      0.0949         0.027078   
    355. D(H  56,C  29,C  28,C  20)   -179.8736         0.027078   
    356. D(C  30,C  29,C  28,H  55)   -179.9127         0.027078   
    357. D(C  30,C  29,C  28,C  20)      0.1188         0.027078   
    358. D(C  32,C  30,C  29,H  56)      0.2904         0.024698   
    359. D(C  32,C  30,C  29,C  28)   -179.7021         0.024698   
    360. D(C  31,C  30,C  29,H  56)   -179.9090         0.024698   
    361. D(C  31,C  30,C  29,C  28)      0.0985         0.024698   
    362. D(H  58,C  31,C  30,C  29)   -179.9609         0.024416   
    363. D(C  27,C  31,C  30,C  32)    179.5151         0.024416   
    364. D(C  27,C  31,C  30,C  29)     -0.2772         0.024416   
    365. D(H  58,C  31,C  27,H  57)      0.3590         0.026836   
    366. D(H  58,C  31,C  27,C  20)    179.9258         0.026836   
    367. D(C  30,C  31,C  27,H  57)   -179.3244         0.026836   
    368. D(H  58,C  31,C  30,C  32)     -0.1686         0.024416   
    369. D(C  30,C  31,C  27,C  20)      0.2425         0.026836   
    370. D(O  34,C  32,C  30,C  31)     -0.1410         0.013370   
    371. D(O  34,C  32,C  30,C  29)    179.6531         0.013370   
    372. D(O  33,C  32,C  30,C  31)    179.9805         0.013370   
    373. D(O  33,C  32,C  30,C  29)     -0.2253         0.013370   
    374. D(C  35,O  34,C  32,O  33)      0.0645         0.030525   
    375. D(C  35,O  34,C  32,C  30)   -179.8166         0.030525   
    376. D(H  38,C  35,O  34,C  32)    -60.7626         0.015421   
    377. D(H  37,C  35,O  34,C  32)     60.4727         0.015421   
    378. D(H  36,C  35,O  34,C  32)    179.8412         0.015421   
    379. D(C  42,C  39,C  24,O  40)      2.2128         0.012457   
    380. D(C  42,C  39,C  24,C  22)   -178.8887         0.012457   
    381. D(C  41,C  39,C  24,O  40)   -177.1979         0.012457   
    382. D(C  41,C  39,C  24,C  22)      1.7006         0.012457   
    383. D(H  47,C  41,C  39,C  42)   -179.8237         0.023811   
    384. D(H  47,C  41,C  39,C  24)     -0.4221         0.023811   
    385. D(C  43,C  41,C  39,C  42)     -0.1381         0.023811   
    386. D(C  43,C  41,C  39,C  24)    179.2635         0.023811   
    387. D(H  46,C  42,C  39,C  41)    179.9415         0.025317   
    388. D(H  46,C  42,C  39,C  24)      0.5175         0.025317   
    389. D(C  45,C  42,C  39,C  41)     -0.0688         0.025317   
    390. D(C  45,C  42,C  39,C  24)   -179.4928         0.025317   
    391. D(H  48,C  43,C  41,H  47)     -0.0942         0.026789   
    392. D(H  48,C  43,C  41,C  39)   -179.7837         0.026789   
    393. D(C  44,C  43,C  41,H  47)    179.9253         0.026789   
    394. D(C  44,C  43,C  41,C  39)      0.2358         0.026789   
    395. D(H  49,C  44,C  43,H  48)     -0.1141         0.025555   
    396. D(H  49,C  44,C  43,C  41)    179.8666         0.025555   
    397. D(C  45,C  44,C  43,H  48)    179.8947         0.025555   
    398. D(C  45,C  44,C  43,C  41)     -0.1246         0.025555   
    399. D(O  50,C  45,C  44,H  49)     -0.0293         0.024465   
    400. D(O  50,C  45,C  44,C  43)    179.9617         0.024465   
    401. D(C  42,C  45,C  44,H  49)    179.9242         0.024465   
    402. D(C  42,C  45,C  44,C  43)     -0.0847         0.024465   
    403. D(O  50,C  45,C  42,H  46)      0.1273         0.025555   
    404. D(O  50,C  45,C  42,C  39)   -179.8623         0.025555   
    405. D(C  44,C  45,C  42,H  46)   -179.8298         0.025555   
    406. D(C  44,C  45,C  42,C  39)      0.1805         0.025555   
    407. D(C  51,O  50,C  45,C  44)      0.1804         0.027025   
    408. D(C  51,O  50,C  45,C  42)   -179.7748         0.027025   
    409. D(H  54,C  51,O  50,C  45)     60.9386         0.016860   
    410. D(H  53,C  51,O  50,C  45)    179.8744         0.016860   
    411. D(H  52,C  51,O  50,C  45)    -61.1928         0.016860   
    -----------------------------------------------------------------

Number of atoms                         .... 59
Number of degrees of freedom            .... 411

         *************************************************************
         *                GEOMETRY OPTIMIZATION CYCLE   1            *
         *************************************************************
---------------------------------
CARTESIAN COORDINATES (ANGSTROEM)
---------------------------------
  C     -2.983644    2.913025   -0.416483
  C     -3.780841    1.620208   -0.921982
  C     -2.735953    0.841007   -0.418530
  C     -1.885694    1.333363    0.566013
  C     -2.093854    2.627464    1.074754
  C     -3.144974    3.407887    0.585474
  O     -4.970142    3.757202   -0.845354
  C     -5.843074    3.277007   -1.887512
  H     -5.271938    3.051914   -2.794629
  H     -6.540549    4.092502   -2.075971
  H     -6.386122    2.385730   -1.555428
  C     -1.209993    3.214447    2.122381
  C      0.171074    2.619297    2.321741
  C      1.065687    2.780794    1.057635
  H      0.092708    1.551565    2.558034
  H      0.629364    3.128297    3.173893
  H     -3.298340    4.409873    0.973413
  H     -4.421755    1.219672   -1.698683
  H     -2.589372   -0.161579   -0.809413
  H     -1.083031    0.710731    0.945538
  C      1.054763    4.222037    0.587042
  O     -1.572576    4.190374    2.780560
  C      2.470140    2.254513    1.372199
  H      0.643374    2.170959    0.254818
  C      3.362207    2.144083    0.146737
  H      2.396212    1.252866    1.818074
  H      2.962926    2.877965    2.126830
  C      1.685008    5.235041    1.322061
  C      0.347157    4.572898   -0.569812
  C      0.266145    5.897539   -0.982538
  C      0.898088    6.906296   -0.242489
  C      1.612873    6.563200    0.915159
  C      0.779814    8.307450   -0.716140
  O      0.167674    8.653949   -1.719228
  O      1.425485    9.183368    0.086368
  C      1.345924   10.577352   -0.318960
  H      1.912004   11.120842    0.435760
  H      0.302765   10.899730   -0.333809
  H      1.791347   10.701627   -1.308111
  C      4.795274    1.776138    0.351729
  O      2.911655    2.332155   -0.982414
  C      5.318273    1.499987    1.627710
  C      5.624604    1.696756   -0.771471
  C      6.657867    1.147361    1.756362
  C      7.492534    1.068093    0.638623
  C      6.970063    1.346108   -0.633298
  H      5.219471    1.909208   -1.755789
  H      4.690399    1.553503    2.509785
  H      7.068754    0.929102    2.737730
  H      8.533205    0.793318    0.765109
  O      7.700502    1.298021   -1.788400
  C      9.091011    0.933870   -1.675550
  H      9.629847    1.657119   -1.054048
  H      9.476636    0.954317   -2.694327
  H      9.192987   -0.071876   -1.253933
  H     -0.143605    3.795524   -1.148473
  H     -0.284931    6.165061   -1.878447
  H      2.233698    4.989217    2.227227
  H      2.105021    7.335726    1.495496

----------------------------
CARTESIAN COORDINATES (A.U.)
----------------------------
  NO LB      ZA    FRAG     MASS         X           Y           Z
   0 C     6.0000    0    12.011   -5.638271    5.504820   -0.787039
   1 C     6.0000    0    12.011   -7.144754    3.061750   -1.742294
   2 C     6.0000    0    12.011   -5.170201    1.589273   -0.790907
   3 C     6.0000    0    12.011   -3.563446    2.519691    1.069609
   4 C     6.0000    0    12.011   -3.956811    4.965188    2.030991
   5 C     6.0000    0    12.011   -5.943140    6.439973    1.106386
   6 O     8.0000    0    15.999   -9.392207    7.100083   -1.597488
   7 C     6.0000    0    12.011  -11.041809    6.192645   -3.566880
   8 H     1.0000    0     1.008   -9.962519    5.767282   -5.281083
   9 H     1.0000    0     1.008  -12.359846    7.733707   -3.923017
  10 H     1.0000    0     1.008  -12.068022    4.508376   -2.939332
  11 C     6.0000    0    12.011   -2.286555    6.074424    4.010718
  12 C     6.0000    0    12.011    0.323284    4.949753    4.387455
  13 C     6.0000    0    12.011    2.013856    5.254939    1.998640
  14 H     1.0000    0     1.008    0.175192    2.932032    4.833983
  15 H     1.0000    0     1.008    1.189325    5.911625    5.997788
  16 H     1.0000    0     1.008   -6.232960    8.333453    1.839483
  17 H     1.0000    0     1.008   -8.355906    2.304846   -3.210045
  18 H     1.0000    0     1.008   -4.893204   -0.305340   -1.529569
  19 H     1.0000    0     1.008   -2.046633    1.343086    1.786809
  20 C     6.0000    0    12.011    1.993213    7.978494    1.109349
  21 O     8.0000    0    15.999   -2.971738    7.918658    5.254498
  22 C     6.0000    0    12.011    4.667888    4.260412    2.593080
  23 H     1.0000    0     1.008    1.215801    4.102519    0.481537
  24 C     6.0000    0    12.011    6.353651    4.051729    0.277293
  25 H     1.0000    0     1.008    4.528184    2.367574    3.435662
  26 H     1.0000    0     1.008    5.599119    5.438565    4.019125
  27 C     6.0000    0    12.011    3.184203    9.892793    2.498333
  28 C     6.0000    0    12.011    0.656032    8.641526   -1.076789
  29 C     6.0000    0    12.011    0.502940   11.144733   -1.856727
  30 C     6.0000    0    12.011    1.697141   13.051008   -0.458237
  31 C     6.0000    0    12.011    3.047888   12.402651    1.729400
  32 C     6.0000    0    12.011    1.473635   15.698806   -1.353308
  33 O     8.0000    0    15.999    0.316857   16.353594   -3.248870
  34 O     8.0000    0    15.999    2.693776   17.354051    0.163211
  35 C     6.0000    0    12.011    2.543428   19.988298   -0.602747
  36 H     1.0000    0     1.008    3.613164   21.015347    0.823466
  37 H     1.0000    0     1.008    0.572143   20.597505   -0.630808
  38 H     1.0000    0     1.008    3.385156   20.223145   -2.471972
  39 C     6.0000    0    12.011    9.061754    3.356414    0.664672
  40 O     8.0000    0    15.999    5.502231    4.407133   -1.856493
  41 C     6.0000    0    12.011   10.050080    2.834564    3.075926
  42 C     6.0000    0    12.011   10.628962    3.206405   -1.457868
  43 C     6.0000    0    12.011   12.581544    2.168197    3.319042
  44 C     6.0000    0    12.011   14.158838    2.018403    1.206823
  45 C     6.0000    0    12.011   13.171510    2.543775   -1.196760
  46 H     1.0000    0     1.008    9.863371    3.607880   -3.317960
  47 H     1.0000    0     1.008    8.863569    2.935695    4.742806
  48 H     1.0000    0     1.008   13.358009    1.755748    5.173559
  49 H     1.0000    0     1.008   16.125421    1.499154    1.445846
  50 O     8.0000    0    15.999   14.551839    2.452904   -3.379586
  51 C     6.0000    0    12.011   17.179521    1.764758   -3.166330
  52 H     1.0000    0     1.008   18.197774    3.131502   -1.991863
  53 H     1.0000    0     1.008   17.908247    1.803397   -5.091540
  54 H     1.0000    0     1.008   17.372228   -0.135826   -2.369591
  55 H     1.0000    0     1.008   -0.271374    7.172501   -2.170300
  56 H     1.0000    0     1.008   -0.538441   11.650276   -3.549751
  57 H     1.0000    0     1.008    4.221077    9.428255    4.208849
  58 H     1.0000    0     1.008    3.977914   13.862513    2.826077

--------------------------------
INTERNAL COORDINATES (ANGSTROEM)
--------------------------------
 C      0   0   0     0.000000000000     0.00000000     0.00000000
 C      1   0   0     1.600758693732     0.00000000     0.00000000
 C      2   1   0     1.397286604120    87.94744238     0.00000000
 C      3   2   1     1.390927359129   120.98148412    21.82036658
 C      4   3   2     1.406003267263   119.43401519     0.91933894
 C      1   2   3     1.129085095956   124.26660629   266.41183982
 O      1   2   3     2.200622146697    78.38793557   193.47272202
 C      7   1   2     1.441766193284   124.03183398   327.69649975
 H      8   7   1     1.095319203999   110.57123823   318.91105601
 H      8   7   1     1.089504872260   105.26826877   199.98153722
 H      8   7   1     1.095242155825   110.61396973    81.04666775
 C      5   4   3     1.491067169694   121.92443070   180.50088888
 C     12   5   4     1.517001909708   118.52521164    19.97473351
 C     13  12   5     1.557041444595   112.06692772    63.09842059
 H     13  12   5     1.096369782282   110.20147801   302.18739250
 H     13  12   5     1.093285295794   107.54189513   184.23359108
 H      6   1   2     1.085354256037   137.90175065   228.05687735
 H      2   1   3     1.083727076669   145.01861368   215.74285682
 H      3   2   1     1.086026695316   119.08168531   202.06024322
 H      4   3   2     1.084425551420   119.79818871   179.78217419
 C     14  13  12     1.516165994169   110.27000830    50.71646964
 O     12   5   4     1.231706309197   120.85483358   197.47196742
 C     14  13  12     1.532452279248   108.92307741   175.72781233
 H     14  13  12     1.093050742212   108.44761013   293.33754646
 C     23  14  13     1.519781371795   113.41456876   170.23502418
 H     23  14  13     1.098893620564   109.55213039    50.15475523
 H     23  14  13     1.095900621814   110.98230607   293.89804650
 C     21  14  13     1.401298516390   121.40847025    70.06323799
 C     21  14  13     1.400757471489   119.87307356   253.30501236
 C     29  21  14     1.389812174916   120.89301427   176.69228461
 C     30  29  21     1.401647325983   120.19019035     0.11879562
 C     28  21  14     1.390963783093   120.89710633   183.17706600
 C     31  30  29     1.483768023942   118.36842363   180.29788199
 O     33  31  30     1.225138000037   124.62967332   359.77469711
 O     33  31  30     1.352087969278   112.59550367   179.65313336
 C     35  33  31     1.453894686300   115.43771838   180.18343276
 H     36  35  33     1.088775072129   104.88645416   179.84119051
 H     36  35  33     1.091938070030   109.82439762    60.47266891
 H     36  35  33     1.091909367137   109.83746304   299.23742363
 C     25  23  14     1.493681781971   118.05950064   173.84705368
 O     25  23  14     1.230182811873   120.93280137   352.74632940
 C     40  25  23     1.406383472661   121.98301407     1.70057510
 C     40  25  23     1.398452273487   118.21127401   181.11130471
 C     42  40  25     1.391188948535   119.45602465   179.26348085
 C     44  42  40     1.397244547771   121.03856038     0.23580780
 C     43  40  25     1.397248963468   120.38934251   180.50720572
 H     43  40  25     1.085426275847   119.72900035     0.51754106
 H     42  40  25     1.084041499329   120.87459923   359.57787032
 H     44  42  40     1.086070129129   119.92015417   180.21631594
 H     45  44  42     1.083741533069   119.64636140   179.86655625
 O     46  43  40     1.367520802623   116.08038415   180.13769334
 C     51  46  43     1.441824079191   117.25125022   180.22524567
 H     52  51  46     1.095307373849   110.61467961   298.80722661
 H     52  51  46     1.089509910599   105.27305421   179.87443148
 H     52  51  46     1.095301019392   110.59933234    60.93860373
 H     29  21  14     1.086281435395   119.26933559   356.72365082
 H     30  29  21     1.085313846011   120.64191744   180.12640570
 H     28  21  14     1.086653195541   120.03217293     2.73976146
 H     32  28  21     1.084341477750   120.01124521   179.92581751

---------------------------
INTERNAL COORDINATES (A.U.)
---------------------------
 C      0   0   0     0.000000000000     0.00000000     0.00000000
 C      1   0   0     3.024995537647     0.00000000     0.00000000
 C      2   1   0     2.640489012384    87.94744238     0.00000000
 C      3   2   1     2.628471780932   120.98148412    21.82036658
 C      4   3   2     2.656961118526   119.43401519     0.91933894
 C      1   2   3     2.133661613249   124.26660629   266.41183982
 O      1   2   3     4.158573181499    78.38793557   193.47272202
 C      7   1   2     2.724543254454   124.03183398   327.69649975
 H      8   7   1     2.069853324783   110.57123823   318.91105601
 H      8   7   1     2.058865830144   105.26826877   199.98153722
 H      8   7   1     2.069707724835   110.61396973    81.04666775
 C      5   4   3     2.817708598004   121.92443070   180.50088888
 C     12   5   4     2.866718153983   118.52521164    19.97473351
 C     13  12   5     2.942381909451   112.06692772    63.09842059
 H     13  12   5     2.071838630020   110.20147801   302.18739250
 H     13  12   5     2.066009795293   107.54189513   184.23359108
 H      6   1   2     2.051022302196   137.90175065   228.05687735
 H      2   1   3     2.047947378819   145.01861368   215.74285682
 H      3   2   1     2.052293028274   119.08168531   202.06024322
 H      4   3   2     2.049267304811   119.79818871   179.78217419
 C     14  13  12     2.865138502544   110.27000830    50.71646964
 O     12   5   4     2.327587601805   120.85483358   197.47196742
 C     14  13  12     2.895915121082   108.92307741   175.72781233
 H     14  13  12     2.065566553261   108.44761013   293.33754646
 C     23  14  13     2.871970576128   113.41456876   170.23502418
 H     23  14  13     2.076607993179   109.55213039    50.15475523
 H     23  14  13     2.070952045222   110.98230607   293.89804650
 C     21  14  13     2.648070427847   121.40847025    70.06323799
 C     21  14  13     2.647048001158   119.87307356   253.30501236
 C     29  21  14     2.626364388182   120.89301427   176.69228461
 C     30  29  21     2.648729582451   120.19019035     0.11879562
 C     28  21  14     2.628540612249   120.89710633   183.17706600
 C     31  30  29     2.803915211521   118.36842363   180.29788199
 O     33  31  30     2.315175296329   124.62967332   359.77469711
 O     33  31  30     2.555075970905   112.59550367   179.65313336
 C     35  33  31     2.747462784670   115.43771838   180.18343276
 H     36  35  33     2.057486707764   104.88645416   179.84119051
 H     36  35  33     2.063463907559   109.82439762    60.47266891
 H     36  35  33     2.063409666953   109.83746304   299.23742363
 C     25  23  14     2.822649499153   118.05950064   173.84705368
 O     25  23  14     2.324708609097   120.93280137   352.74632940
 C     40  25  23     2.657679602603   121.98301407     1.70057510
 C     40  25  23     2.642691808250   118.21127401   181.11130471
 C     42  40  25     2.628966113270   119.45602465   179.26348085
 C     44  42  40     2.640409537403   121.03856038     0.23580780
 C     43  40  25     2.640417881859   120.38934251   180.50720572
 H     43  40  25     2.051158399914   119.72900035     0.51754106
 H     42  40  25     2.048541551536   120.87459923   359.57787032
 H     44  42  40     2.052375106286   119.92015417   180.21631594
 H     45  44  42     2.047974697456   119.64636140   179.86655625
 O     46  43  40     2.584239799397   116.08038415   180.13769334
 C     51  46  43     2.724652642963   117.25125022   180.22524567
 H     52  51  46     2.069830969040   110.61467961   298.80722661
 H     52  51  46     2.058875351225   105.27305421   179.87443148
 H     52  51  46     2.069818960856   110.59933234    60.93860373
 H     29  21  14     2.052774417260   119.26933559   356.72365082
 H     30  29  21     2.050945938313   120.64191744   180.12640570
 H     28  21  14     2.053476942123   120.03217293     2.73976146
 H     32  28  21     2.049108428598   120.01124521   179.92581751

---------------------
BASIS SET INFORMATION
---------------------
There are 3 groups of distinct atoms

 Group   1 Type C   : 11s6p2d1f contracted to 5s3p2d1f pattern {62111/411/11/1}
 Group   2 Type O   : 11s6p2d1f contracted to 5s3p2d1f pattern {62111/411/11/1}
 Group   3 Type H   : 5s1p contracted to 3s1p pattern {311/1}

Atom   0C    basis set group =>   1
Atom   1C    basis set group =>   1
Atom   2C    basis set group =>   1
Atom   3C    basis set group =>   1
Atom   4C    basis set group =>   1
Atom   5C    basis set group =>   1
Atom   6O    basis set group =>   2
Atom   7C    basis set group =>   1
Atom   8H    basis set group =>   3
Atom   9H    basis set group =>   3
Atom  10H    basis set group =>   3
Atom  11C    basis set group =>   1
Atom  12C    basis set group =>   1
Atom  13C    basis set group =>   1
Atom  14H    basis set group =>   3
Atom  15H    basis set group =>   3
Atom  16H    basis set group =>   3
Atom  17H    basis set group =>   3
Atom  18H    basis set group =>   3
Atom  19H    basis set group =>   3
Atom  20C    basis set group =>   1
Atom  21O    basis set group =>   2
Atom  22C    basis set group =>   1
Atom  23H    basis set group =>   3
Atom  24C    basis set group =>   1
Atom  25H    basis set group =>   3
Atom  26H    basis set group =>   3
Atom  27C    basis set group =>   1
Atom  28C    basis set group =>   1
Atom  29C    basis set group =>   1
Atom  30C    basis set group =>   1
Atom  31C    basis set group =>   1
Atom  32C    basis set group =>   1
Atom  33O    basis set group =>   2
Atom  34O    basis set group =>   2
Atom  35C    basis set group =>   1
Atom  36H    basis set group =>   3
Atom  37H    basis set group =>   3
Atom  38H    basis set group =>   3
Atom  39C    basis set group =>   1
Atom  40O    basis set group =>   2
Atom  41C    basis set group =>   1
Atom  42C    basis set group =>   1
Atom  43C    basis set group =>   1
Atom  44C    basis set group =>   1
Atom  45C    basis set group =>   1
Atom  46H    basis set group =>   3
Atom  47H    basis set group =>   3
Atom  48H    basis set group =>   3
Atom  49H    basis set group =>   3
Atom  50O    basis set group =>   2
Atom  51C    basis set group =>   1
Atom  52H    basis set group =>   3
Atom  53H    basis set group =>   3
Atom  54H    basis set group =>   3
Atom  55H    basis set group =>   3
Atom  56H    basis set group =>   3
Atom  57H    basis set group =>   3
Atom  58H    basis set group =>   3
---------------------------------
AUXILIARY/J BASIS SET INFORMATION
---------------------------------
There are 3 groups of distinct atoms

 Group   1 Type C   : 12s5p4d2f1g contracted to 6s4p3d1f1g pattern {711111/2111/211/2/1}
 Group   2 Type O   : 12s5p4d2f1g contracted to 6s4p3d1f1g pattern {711111/2111/211/2/1}
 Group   3 Type H   : 5s2p1d contracted to 3s1p1d pattern {311/2/1}

Atom   0C    basis set group =>   1
Atom   1C    basis set group =>   1
Atom   2C    basis set group =>   1
Atom   3C    basis set group =>   1
Atom   4C    basis set group =>   1
Atom   5C    basis set group =>   1
Atom   6O    basis set group =>   2
Atom   7C    basis set group =>   1
Atom   8H    basis set group =>   3
Atom   9H    basis set group =>   3
Atom  10H    basis set group =>   3
Atom  11C    basis set group =>   1
Atom  12C    basis set group =>   1
Atom  13C    basis set group =>   1
Atom  14H    basis set group =>   3
Atom  15H    basis set group =>   3
Atom  16H    basis set group =>   3
Atom  17H    basis set group =>   3
Atom  18H    basis set group =>   3
Atom  19H    basis set group =>   3
Atom  20C    basis set group =>   1
Atom  21O    basis set group =>   2
Atom  22C    basis set group =>   1
Atom  23H    basis set group =>   3
Atom  24C    basis set group =>   1
Atom  25H    basis set group =>   3
Atom  26H    basis set group =>   3
Atom  27C    basis set group =>   1
Atom  28C    basis set group =>   1
Atom  29C    basis set group =>   1
Atom  30C    basis set group =>   1
Atom  31C    basis set group =>   1
Atom  32C    basis set group =>   1
Atom  33O    basis set group =>   2
Atom  34O    basis set group =>   2
Atom  35C    basis set group =>   1
Atom  36H    basis set group =>   3
Atom  37H    basis set group =>   3
Atom  38H    basis set group =>   3
Atom  39C    basis set group =>   1
Atom  40O    basis set group =>   2
Atom  41C    basis set group =>   1
Atom  42C    basis set group =>   1
Atom  43C    basis set group =>   1
Atom  44C    basis set group =>   1
Atom  45C    basis set group =>   1
Atom  46H    basis set group =>   3
Atom  47H    basis set group =>   3
Atom  48H    basis set group =>   3
Atom  49H    basis set group =>   3
Atom  50O    basis set group =>   2
Atom  51C    basis set group =>   1
Atom  52H    basis set group =>   3
Atom  53H    basis set group =>   3
Atom  54H    basis set group =>   3
Atom  55H    basis set group =>   3
Atom  56H    basis set group =>   3
Atom  57H    basis set group =>   3
Atom  58H    basis set group =>   3


           ************************************************************
           *        Program running with 8 parallel MPI-processes     *
           *              working on a common directory               *
           ************************************************************
------------------------------------------------------------------------------
                           ORCA GTO INTEGRAL CALCULATION
                           -- RI-GTO INTEGRALS CHOSEN --
------------------------------------------------------------------------------
------------------------------------------------------------------------------
                   ___                                                        
                  /   \      - P O W E R E D   B Y -                         
                 /     \                                                     
                 |  |  |   _    _      __       _____    __    __             
                 |  |  |  | |  | |    /  \     |  _  \  |  |  /  |          
                  \  \/   | |  | |   /    \    | | | |  |  | /  /          
                 / \  \   | |__| |  /  /\  \   | |_| |  |  |/  /          
                |  |  |   |  __  | /  /__\  \  |    /   |      \           
                |  |  |   | |  | | |   __   |  |    \   |  |\   \          
                \     /   | |  | | |  |  |  |  | |\  \  |  | \   \       
                 \___/    |_|  |_| |__|  |__|  |_| \__\ |__|  \__/        
                                                                              
                      - O R C A' S   B I G   F R I E N D -                    
                                      &                                       
                       - I N T E G R A L  F E E D E R -                       
                                                                              
 v1 FN, 2020, v2 2021                                                         
------------------------------------------------------------------------------


Reading SHARK input file Diketon_freqopt.SHARKINP.tmp ... ok
----------------------
SHARK INTEGRAL PACKAGE
----------------------

Number of atoms                             ...     59
Number of basis functions                   ...   1179
Number of shells                            ...    467
Maximum angular momentum                    ...      3
Integral batch strategy                     ... SHARK/LIBINT Hybrid
RI-J (if used) integral strategy            ... SPLIT-RIJ (Revised 2003 algorithm where possible)
Printlevel                                  ...      1
Contraction scheme used                     ... SEGMENTED contraction
Coulomb Range Separation                    ... NOT USED
Exchange Range Separation                   ... NOT USED
Finite Nucleus Model                        ... NOT USED
Auxiliary Coulomb fitting basis             ... AVAILABLE
   # of basis functions in Aux-J            ...   1903
   # of shells in Aux-J                     ...    625
   Maximum angular momentum in Aux-J        ...      4
Auxiliary J/K fitting basis                 ... NOT available
Auxiliary Correlation fitting basis         ... NOT available
Auxiliary 'external' fitting basis          ... NOT available
Integral threshold                          ...     2.500000e-11
Primitive cut-off                           ...     2.500000e-12
Primitive pair pre-selection threshold      ...     2.500000e-12

Calculating pre-screening integrals         ... done (  0.3 sec) Dimension = 467
Organizing shell pair data                  ... done (  1.3 sec)
Shell pair information
Total number of shell pairs                 ...    109278
Shell pairs after pre-screening             ...     58312
Total number of primitive shell pairs       ...    334140
Primitive shell pairs kept                  ...    114347
          la=0 lb=0:  15204 shell pairs
          la=1 lb=0:  17236 shell pairs
          la=1 lb=1:   4915 shell pairs
          la=2 lb=0:   8080 shell pairs
          la=2 lb=1:   4637 shell pairs
          la=2 lb=2:   1082 shell pairs
          la=3 lb=0:   3745 shell pairs
          la=3 lb=1:   2190 shell pairs
          la=3 lb=2:    986 shell pairs
          la=3 lb=3:    237 shell pairs

Calculating one electron integrals          ... done (  0.3 sec)
Calculating RI/J V-Matrix + Cholesky decomp.... done (  0.5 sec)
Calculating Nuclear repulsion               ... done (  0.0 sec) ENN=   3155.593335593238 Eh

SHARK setup successfully completed in   4.1 seconds

Maximum memory used throughout the entire GTOINT-calculation: 91.6 MB


           ************************************************************
           *        Program running with 8 parallel MPI-processes     *
           *              working on a common directory               *
           ************************************************************
-------------------------------------------------------------------------------
                                 ORCA SCF
-------------------------------------------------------------------------------

------------
SCF SETTINGS
------------
Hamiltonian:
 Density Functional     Method          .... DFT(GTOs)
 Exchange Functional    Exchange        .... TPSS
 Correlation Functional Correlation     .... TPSS
 LDA part of GGA corr.  LDAOpt          .... PW91-LDA
 Gradients option       PostSCFGGA      .... off
   Density functional embedding theory  .... OFF
   NL short-range parameter             ....  5.000000
 RI-approximation to the Coulomb term is turned on
   Number of AuxJ basis functions       .... 1903


General Settings:
 Integral files         IntName         .... Diketon_freqopt
 Hartree-Fock type      HFTyp           .... RHF
 Total Charge           Charge          ....    0
 Multiplicity           Mult            ....    1
 Number of Electrons    NEL             ....  236
 Basis Dimension        Dim             .... 1179
 Nuclear Repulsion      ENuc            ....   3155.5933355932 Eh

Convergence Acceleration:
 DIIS                   CNVDIIS         .... on
   Start iteration      DIISMaxIt       ....    12
   Startup error        DIISStart       ....  0.200000
   # of expansion vecs  DIISMaxEq       ....     5
   Bias factor          DIISBfac        ....   1.050
   Max. coefficient     DIISMaxC        ....  10.000
 Trust-Rad. Augm. Hess. CNVTRAH         .... auto
   Auto Start mean grad. ratio tolernc. ....  1.125000
   Auto Start start iteration           ....    20
   Auto Start num. interpolation iter.  ....    10
   Max. Number of Micro iterations      ....    16
   Max. Number of Macro iterations      .... Maxiter - #DIIS iter
   Number of Davidson start vectors     ....     2
   Converg. threshold I  (grad. norm)   ....   1.000e-05
   Converg. threshold II (energy diff.) ....   1.000e-08
   Grad. Scal. Fac. for Micro threshold ....   0.100
   Minimum threshold for Micro iter.    ....   0.010
   NR start threshold (gradient norm)   ....   0.001
   Initial trust radius                 ....   0.400
   Minimum AH scaling param. (alpha)    ....   1.000
   Maximum AH scaling param. (alpha)    .... 1000.000
   Orbital update algorithm             .... Taylor
   White noise on init. David. guess    .... on
   Maximum white noise                  ....   0.010
   Quad. conv. algorithm                .... NR
 SOSCF                  CNVSOSCF        .... on
   Start iteration      SOSCFMaxIt      ....   150
   Startup grad/error   SOSCFStart      ....  0.003300
 Level Shifting         CNVShift        .... on
   Level shift para.    LevelShift      ....    0.2500
   Turn off err/grad.   ShiftErr        ....    0.0010
 Zerner damping         CNVZerner       .... off
 Static damping         CNVDamp         .... on
   Fraction old density DampFac         ....    0.7000
   Max. Damping (<1)    DampMax         ....    0.9800
   Min. Damping (>=0)   DampMin         ....    0.0000
   Turn off err/grad.   DampErr         ....    0.1000
 Fernandez-Rico         CNVRico         .... off

SCF Procedure:
 Maximum # iterations   MaxIter         ....   125
 SCF integral mode      SCFMode         .... Direct
   Integral package                     .... SHARK and LIBINT hybrid scheme
 Reset frequency        DirectResetFreq ....    20
 Integral Threshold     Thresh          ....  2.500e-11 Eh
 Primitive CutOff       TCut            ....  2.500e-12 Eh

Convergence Tolerance:
 Convergence Check Mode ConvCheckMode   .... Total+1el-Energy
 Convergence forced     ConvForced      .... 0
 Energy Change          TolE            ....  1.000e-08 Eh
 1-El. energy change                    ....  1.000e-05 Eh
 Orbital Gradient       TolG            ....  1.000e-05
 Orbital Rotation angle TolX            ....  1.000e-05
 DIIS Error             TolErr          ....  5.000e-07


Diagonalization of the overlap matrix:
Smallest eigenvalue                        ... 6.074e-06
Time for diagonalization                   ...    0.664 sec
Threshold for overlap eigenvalues          ... 1.000e-08
Number of eigenvalues below threshold      ... 0
Time for construction of square roots      ...    0.505 sec
Total time needed                          ...    1.181 sec

Time for model grid setup =    2.047 sec

------------------------------
INITIAL GUESS: MODEL POTENTIAL
------------------------------
Loading Hartree-Fock densities                     ... done
Calculating cut-offs                               ... done
Initializing the effective Hamiltonian             ... done
Setting up the integral package (SHARK)            ... done
Starting the Coulomb interaction                   ... done (   2.8 sec)
Reading the grid                                   ... done
Mapping shells                                     ... done
Starting the XC term evaluation                    ... done (   1.7 sec)
  promolecular density results
     # of electrons  =    235.986692741
     EX              =   -194.629078614
     EC              =     -7.909606966
     EX+EC           =   -202.538685579
Transforming the Hamiltonian                       ... done (   0.4 sec)
Diagonalizing the Hamiltonian                      ... done (   0.7 sec)
Back transforming the eigenvectors                 ... done (   0.2 sec)
Now organizing SCF variables                       ... done
                      ------------------
                      INITIAL GUESS DONE (   8.0 sec)
                      ------------------
-------------------
DFT GRID GENERATION
-------------------

General Integration Accuracy     IntAcc      ... 4.388
Radial Grid Type                 RadialGrid  ... OptM3 with GC (2021)
Angular Grid (max. ang.)         AngularGrid ... 4 (Lebedev-302)
Angular grid pruning method      GridPruning ... 4 (adaptive)
Weight generation scheme         WeightScheme... Becke
Basis function cutoff            BFCut       ... 1.0000e-11
Integration weight cutoff        WCut        ... 1.0000e-14
Angular grids for H and He will be reduced by one unit
Partially contracted basis set               ... off
Rotationally invariant grid construction     ... off

Total number of grid points                  ...   279761
Total number of batches                      ...     4402
Average number of points per batch           ...       63
Average number of grid points per atom       ...     4742
Time for grid setup =    6.784 sec


--------------------
CPCM SOLVATION MODEL
--------------------
CPCM parameters:
  Epsilon                                         ...       7.2500
  Refrac                                          ...       1.4070
  Rsolv                                           ...       1.3000
  Surface type                                    ... GAUSSIAN VDW
  Epsilon function type                           ...         CPCM
Radii:
 Radius for C  used is    3.8550 Bohr (=   2.0400 Ang.)
 Radius for O  used is    3.4469 Bohr (=   1.8240 Ang.)
 Radius for H  used is    2.4944 Bohr (=   1.3200 Ang.)
Calculating surface                               ...        done! (  0.0s)
GEPOL surface points                              ...         3065
GEPOL Volume                                      ...    3614.0713
GEPOL Surface-area                                ...    1803.0943
Calculating surface distance matrix               ...        done! (  0.2s)
Performing Cholesky decomposition & store         ...        done! (  1.3s)
Overall time for CPCM initialization              ...                 1.6s
--------------
SCF ITERATIONS
--------------
ITER       Energy         Delta-E        Max-DP      RMS-DP      [F,P]     Damp
               ***  Starting incremental Fock matrix formation  ***
  0  -1495.5284786300   0.000000000000 1.13004900  0.00261422  0.3411493 0.7000
  1  -1495.9269044966  -0.398425866513 0.44169674  0.00128702  0.0839004 0.7000
                               ***Turning on DIIS***
  2  -1496.0434572221  -0.116552725568 0.53318082  0.00157228  0.0512686 0.0000
  3  -1496.2783124366  -0.234855214488 0.41774271  0.00113079  0.0424579 0.0000
  4  -1496.3199449167  -0.041632480053 0.03285637  0.00021063  0.0511564 0.0000
  5  -1496.3283717727  -0.008426856068 0.01562206  0.00010093  0.0044286 0.0000
  6  -1496.3286303292  -0.000258556446 0.00843355  0.00003714  0.0035584 0.0000
                      *** Initiating the SOSCF procedure ***
                           *** Shutting down DIIS ***
                      *** Re-Reading the Fockian *** 
                      *** Removing any level shift *** 
ITER      Energy       Delta-E        Grad      Rot      Max-DP    RMS-DP
  7  -1496.32870031  -0.0000699781  0.000306  0.000306  0.006700  0.000022
               *** Restarting incremental Fock matrix formation ***
  8  -1496.32871222  -0.0000119113  0.000313  0.006260  0.007966  0.000027
  9  -1496.32870925   0.0000029721  0.000986  0.004674  0.006727  0.000028
 10  -1496.32871634  -0.0000070889  0.000627  0.002638  0.003062  0.000018
 11  -1496.32871336   0.0000029746  0.000368  0.001437  0.002627  0.000012
 12  -1496.32872110  -0.0000077417  0.000138  0.001828  0.002731  0.000013
 13  -1496.32872142  -0.0000003220  0.000151  0.000238  0.000860  0.000003
 14  -1496.32872313  -0.0000017043  0.000031  0.000609  0.000564  0.000004
 15  -1496.32872309   0.0000000431  0.000044  0.000106  0.000153  0.000001
 16  -1496.32872326  -0.0000001752  0.000019  0.000314  0.000335  0.000002
 17  -1496.32872326   0.0000000034  0.000017  0.000080  0.000187  0.000001
 18  -1496.32872326  -0.0000000051  0.000007  0.000148  0.000161  0.000001
 19  -1496.32872330  -0.0000000323  0.000006  0.000074  0.000134  0.000001
 20  -1496.32872333  -0.0000000358  0.000003  0.000045  0.000119  0.000001
 21  -1496.32872329   0.0000000415  0.000004  0.000030  0.000050  0.000000
                  ***Gradient check signals convergence***
              ***Rediagonalizing the Fockian in SOSCF/NRSCF***

               *****************************************************
               *                     SUCCESS                       *
[...]
106:   1181.69   0.001716    8.67  0.000453  (-0.013290  0.000488 -0.016625)
107:   1183.69   0.002026   10.24  0.000534  (-0.006235  0.011914 -0.018795)
108:   1189.37   0.009614   48.59  0.002523  (-0.018018 -0.043340 -0.017876)
109:   1193.78   0.010426   52.69  0.002725  ( 0.047891 -0.007165  0.019507)
110:   1209.59   0.002070   10.46  0.000534  (-0.005535 -0.021579  0.006145)
111:   1223.03   0.021338  107.83  0.005444  ( 0.047870 -0.043675  0.035291)
112:   1242.28   0.056412  285.08  0.014171  ( 0.098531 -0.017681 -0.064419)
113:   1259.75   0.102914  520.08  0.025494  ( 0.021168  0.157425  0.016218)
114:   1267.13   0.079015  399.31  0.019459  (-0.132083  0.011844  0.043282)
115:   1274.44   0.104884  530.04  0.025682  (-0.140336  0.009146 -0.076840)
116:   1292.92   0.011689   59.07  0.002821  ( 0.044759 -0.019617  0.020812)
117:   1294.40   0.005619   28.40  0.001355  (-0.024954  0.003324  0.026850)
118:   1313.52   0.006049   30.57  0.001437  ( 0.035049  0.002269  0.014265)
119:   1323.09   0.004570   23.09  0.001078  ( 0.029219  0.001291 -0.014914)
120:   1334.26   0.006327   31.97  0.001480  ( 0.001276 -0.027733  0.026628)
121:   1351.95   0.008435   42.63  0.001947  ( 0.032824 -0.010977 -0.027369)
122:   1358.89   0.006028   30.46  0.001384  (-0.022582 -0.018851 -0.022779)
123:   1359.97   0.003904   19.73  0.000896  ( 0.023969 -0.011323  0.013896)
124:   1378.26   0.002481   12.54  0.000562  (-0.005232  0.017198  0.015445)
125:   1431.16   0.001963    9.92  0.000428  ( 0.005844  0.019266  0.004769)
126:   1439.53   0.022897  115.71  0.004964  (-0.051717  0.010881 -0.046589)
127:   1440.44   0.015725   79.47  0.003407  (-0.047698  0.012185  0.031356)
128:   1442.33   0.014601   73.79  0.003159  ( 0.050416 -0.007410 -0.023715)
129:   1447.79   0.006648   33.60  0.001433  (-0.002026 -0.036010  0.011497)
130:   1455.24   0.003809   19.25  0.000817  (-0.020862 -0.014240 -0.013369)
131:   1459.59   0.008056   40.71  0.001722  (-0.040767  0.007544  0.001861)
132:   1464.81   0.010820   54.68  0.002305  ( 0.031166 -0.007362  0.035772)
133:   1466.96   0.002252   11.38  0.000479  ( 0.018775 -0.006258 -0.009349)
134:   1474.85   0.001969    9.95  0.000417  (-0.012040 -0.007408  0.014722)
135:   1476.49   0.002150   10.87  0.000454  ( 0.003422  0.021010 -0.001175)
136:   1477.16   0.001753    8.86  0.000370  (-0.008687 -0.009876 -0.014046)
137:   1487.18   0.002424   12.25  0.000509  (-0.010296  0.001276  0.020027)
138:   1487.66   0.002675   13.52  0.000561  ( 0.017055 -0.015469  0.005560)
139:   1493.23   0.008392   42.41  0.001754  (-0.030092  0.025413 -0.014229)
140:   1494.71   0.011698   59.12  0.002442  ( 0.028918 -0.003820 -0.039893)
141:   1518.21   0.000307    1.55  0.000063  (-0.002826 -0.000043 -0.007429)
142:   1579.16   0.002214   11.19  0.000438  ( 0.006320 -0.015701  0.012291)
143:   1582.55   0.025634  129.54  0.005055  ( 0.046186 -0.053018  0.010521)
144:   1584.22   0.023367  118.09  0.004603  (-0.023504 -0.001333  0.063629)
145:   1602.52   0.016067   81.20  0.003129  ( 0.012385 -0.041741 -0.035115)
146:   1602.92   0.010819   54.68  0.002106  (-0.016094  0.009827 -0.041842)
147:   1615.79   0.020300  102.59  0.003921  (-0.007617  0.053944 -0.030865)
148:   1652.36   0.076800  388.12  0.014505  (-0.010733 -0.067125 -0.099416)
149:   1659.38   0.045443  229.65  0.008546  (-0.068885  0.027988 -0.054931)
150:   1674.69   0.097897  494.73  0.018242  (-0.057423  0.052473 -0.110415)
151:   2987.18   0.011839   59.83  0.001237  ( 0.024496  0.006985  0.024247)
152:   2988.36   0.011605   58.65  0.001212  ( 0.034057 -0.007160 -0.000842)
153:   2990.57   0.006629   33.50  0.000692  ( 0.020114 -0.016521  0.003768)
154:   3010.20   0.004710   23.80  0.000488  (-0.001154  0.015646 -0.015561)
155:   3021.07   0.006141   31.04  0.000634  ( 0.000745 -0.023686  0.008533)
156:   3034.98   0.000326    1.65  0.000034  (-0.005213  0.000745 -0.002414)
157:   3049.46   0.002001   10.11  0.000205  (-0.008970 -0.009703 -0.005493)
158:   3049.94   0.008419   42.55  0.000861  (-0.018615 -0.010969  0.019864)
159:   3051.24   0.008713   44.03  0.000891  ( 0.005658  0.029245  0.001977)
160:   3071.31   0.007735   39.09  0.000786  (-0.015640 -0.016545 -0.016357)
161:   3098.67   0.005951   30.07  0.000599  ( 0.018467 -0.007667 -0.014126)
162:   3115.36   0.004469   22.58  0.000448  ( 0.013450 -0.016018  0.003184)
163:   3116.24   0.004738   23.95  0.000474  ( 0.007103  0.000147 -0.020592)
164:   3132.31   0.004381   22.14  0.000436  ( 0.010418  0.009371  0.015495)
165:   3135.85   0.003080   15.56  0.000306  (-0.007709  0.008510 -0.013214)
166:   3139.72   0.001524    7.70  0.000151  ( 0.005809  0.010041  0.004114)
167:   3141.39   0.002661   13.45  0.000264  (-0.000010  0.014982  0.006317)
168:   3141.69   0.002694   13.61  0.000268  ( 0.007128 -0.002836  0.014447)
169:   3161.67   0.001252    6.33  0.000124  ( 0.009165 -0.004869  0.003983)
170:   3162.06   0.002066   10.44  0.000204  (-0.008190 -0.006315 -0.009847)
171:   3162.58   0.001630    8.24  0.000161  (-0.009840  0.002230  0.007682)
172:   3165.65   0.002319   11.72  0.000229  ( 0.010905 -0.009755  0.003807)
173:   3171.15   0.001142    5.77  0.000112  ( 0.006399  0.002608  0.008040)
174:   3171.41   0.001982   10.01  0.000195  (-0.008673  0.001013  0.010896)
175:   3173.17   0.001541    7.79  0.000152  (-0.005268 -0.008021 -0.007710)
176:   3174.68   0.000904    4.57  0.000089  (-0.007052  0.002751 -0.005622)

* The epsilon (eps) is given for a Dirac delta lineshape.
** The dipole moment derivative (T) already includes vibrational overlap.

The first frequency considered to be a vibration is 6
The total number of vibrations considered is 171


--------------------------
THERMOCHEMISTRY AT 298.15K
--------------------------

Temperature         ... 298.15 K
Pressure            ... 1.00 atm
Total Mass          ... 446.50 AMU

Throughout the following assumptions are being made:
  (1) The electronic state is orbitally nondegenerate
  (2) There are no thermally accessible electronically excited states
  (3) Hindered rotations indicated by low frequency modes are not
      treated as such but are treated as vibrations and this may
      cause some error
  (4) All equations used are the standard statistical mechanics
      equations for an ideal gas
  (5) All vibrations are strictly harmonic

freq.      10.86  E(vib)   ...       0.58 
freq.      10.93  E(vib)   ...       0.58 
freq.      16.46  E(vib)   ...       0.57 
freq.      22.00  E(vib)   ...       0.56 
freq.      30.17  E(vib)   ...       0.55 
freq.      31.63  E(vib)   ...       0.55 
freq.      40.82  E(vib)   ...       0.54 
freq.      57.93  E(vib)   ...       0.51 
freq.      60.94  E(vib)   ...       0.51 
freq.      76.83  E(vib)   ...       0.49 
freq.      81.87  E(vib)   ...       0.48 
freq.      86.89  E(vib)   ...       0.48 
freq.      88.17  E(vib)   ...       0.48 
freq.     110.40  E(vib)   ...       0.45 
freq.     126.68  E(vib)   ...       0.43 
freq.     135.88  E(vib)   ...       0.42 
freq.     145.41  E(vib)   ...       0.41 
freq.     155.99  E(vib)   ...       0.40 
freq.     158.03  E(vib)   ...       0.40 
freq.     170.06  E(vib)   ...       0.38 
freq.     191.18  E(vib)   ...       0.36 
freq.     204.80  E(vib)   ...       0.35 
freq.     205.79  E(vib)   ...       0.35 
freq.     221.35  E(vib)   ...       0.33 
freq.     237.83  E(vib)   ...       0.32 
freq.     254.51  E(vib)   ...       0.30 
freq.     264.56  E(vib)   ...       0.29 
freq.     265.00  E(vib)   ...       0.29 
freq.     270.51  E(vib)   ...       0.29 
freq.     282.54  E(vib)   ...       0.28 
freq.     312.04  E(vib)   ...       0.25 
freq.     331.55  E(vib)   ...       0.24 
freq.     352.80  E(vib)   ...       0.22 
freq.     384.25  E(vib)   ...       0.20 
freq.     404.49  E(vib)   ...       0.19 
freq.     416.01  E(vib)   ...       0.18 
freq.     421.80  E(vib)   ...       0.18 
freq.     424.79  E(vib)   ...       0.18 
freq.     434.79  E(vib)   ...       0.17 
freq.     463.18  E(vib)   ...       0.16 
freq.     471.70  E(vib)   ...       0.15 
freq.     496.66  E(vib)   ...       0.14 
freq.     502.24  E(vib)   ...       0.14 
freq.     515.34  E(vib)   ...       0.13 
freq.     532.91  E(vib)   ...       0.13 
freq.     554.98  E(vib)   ...       0.12 
freq.     555.87  E(vib)   ...       0.12 
freq.     561.62  E(vib)   ...       0.11 
freq.     587.66  E(vib)   ...       0.10 
freq.     591.47  E(vib)   ...       0.10 
freq.     627.01  E(vib)   ...       0.09 
freq.     638.71  E(vib)   ...       0.09 
freq.     653.39  E(vib)   ...       0.08 
freq.     679.51  E(vib)   ...       0.08 
freq.     685.89  E(vib)   ...       0.07 
freq.     697.61  E(vib)   ...       0.07 
freq.     707.97  E(vib)   ...       0.07 
freq.     723.95  E(vib)   ...       0.06 
freq.     746.35  E(vib)   ...       0.06 
freq.     760.27  E(vib)   ...       0.06 
freq.     774.55  E(vib)   ...       0.05 
freq.     777.70  E(vib)   ...       0.05 
freq.     786.06  E(vib)   ...       0.05 
freq.     819.28  E(vib)   ...       0.05 
freq.     838.37  E(vib)   ...       0.04 
freq.     843.23  E(vib)   ...       0.04 
freq.     857.43  E(vib)   ...       0.04 
freq.     859.51  E(vib)   ...       0.04 
freq.     880.94  E(vib)   ...       0.04 
freq.     883.54  E(vib)   ...       0.04 
freq.     890.96  E(vib)   ...       0.04 
freq.     900.41  E(vib)   ...       0.03 
freq.     921.21  E(vib)   ...       0.03 
freq.     949.88  E(vib)   ...       0.03 
freq.     961.64  E(vib)   ...       0.03 
freq.     962.85  E(vib)   ...       0.03 
freq.     969.13  E(vib)   ...       0.03 
freq.     973.01  E(vib)   ...       0.03 
freq.     976.18  E(vib)   ...       0.03 
freq.     987.34  E(vib)   ...       0.02 
freq.     994.04  E(vib)   ...       0.02 
freq.     994.97  E(vib)   ...       0.02 
freq.    1007.63  E(vib)   ...       0.02 
freq.    1021.33  E(vib)   ...       0.02 
freq.    1023.89  E(vib)   ...       0.02 
freq.    1037.66  E(vib)   ...       0.02 
freq.    1050.49  E(vib)   ...       0.02 
freq.    1068.29  E(vib)   ...       0.02 
freq.    1095.94  E(vib)   ...       0.02 
freq.    1101.96  E(vib)   ...       0.02 
freq.    1104.96  E(vib)   ...       0.02 
freq.    1114.07  E(vib)   ...       0.01 
freq.    1132.25  E(vib)   ...       0.01 
freq.    1146.79  E(vib)   ...       0.01 
freq.    1149.30  E(vib)   ...       0.01 
freq.    1149.44  E(vib)   ...       0.01 
freq.    1156.45  E(vib)   ...       0.01 
freq.    1173.92  E(vib)   ...       0.01 
freq.    1176.87  E(vib)   ...       0.01 
freq.    1179.43  E(vib)   ...       0.01 
freq.    1181.69  E(vib)   ...       0.01 
freq.    1183.69  E(vib)   ...       0.01 
freq.    1189.37  E(vib)   ...       0.01 
freq.    1193.78  E(vib)   ...       0.01 
freq.    1209.59  E(vib)   ...       0.01 
freq.    1223.03  E(vib)   ...       0.01 
freq.    1242.28  E(vib)   ...       0.01 
freq.    1259.75  E(vib)   ...       0.01 
freq.    1267.13  E(vib)   ...       0.01 
freq.    1274.44  E(vib)   ...       0.01 
freq.    1292.92  E(vib)   ...       0.01 
freq.    1294.40  E(vib)   ...       0.01 
freq.    1313.52  E(vib)   ...       0.01 
freq.    1323.09  E(vib)   ...       0.01 
freq.    1334.26  E(vib)   ...       0.01 
freq.    1351.95  E(vib)   ...       0.01 
freq.    1358.89  E(vib)   ...       0.01 
freq.    1359.97  E(vib)   ...       0.01 
freq.    1378.26  E(vib)   ...       0.01 
freq.    1431.16  E(vib)   ...       0.00 
freq.    1439.53  E(vib)   ...       0.00 
freq.    1440.44  E(vib)   ...       0.00 
freq.    1442.33  E(vib)   ...       0.00 
freq.    1447.79  E(vib)   ...       0.00 
freq.    1455.24  E(vib)   ...       0.00 
freq.    1459.59  E(vib)   ...       0.00 
freq.    1464.81  E(vib)   ...       0.00 
freq.    1466.96  E(vib)   ...       0.00 
freq.    1474.85  E(vib)   ...       0.00 
freq.    1476.49  E(vib)   ...       0.00 
freq.    1477.16  E(vib)   ...       0.00 
freq.    1487.18  E(vib)   ...       0.00 
freq.    1487.66  E(vib)   ...       0.00 
freq.    1493.23  E(vib)   ...       0.00 
freq.    1494.71  E(vib)   ...       0.00 
freq.    1518.21  E(vib)   ...       0.00 
freq.    1579.16  E(vib)   ...       0.00 
freq.    1582.55  E(vib)   ...       0.00 
freq.    1584.22  E(vib)   ...       0.00 
freq.    1602.52  E(vib)   ...       0.00 
freq.    1602.92  E(vib)   ...       0.00 
freq.    1615.79  E(vib)   ...       0.00 
freq.    1652.36  E(vib)   ...       0.00 
freq.    1659.38  E(vib)   ...       0.00 
freq.    1674.69  E(vib)   ...       0.00 
freq.    2987.18  E(vib)   ...       0.00 
freq.    2988.36  E(vib)   ...       0.00 
freq.    2990.57  E(vib)   ...       0.00 
freq.    3010.20  E(vib)   ...       0.00 
freq.    3021.07  E(vib)   ...       0.00 
freq.    3034.98  E(vib)   ...       0.00 
freq.    3049.46  E(vib)   ...       0.00 
freq.    3049.94  E(vib)   ...       0.00 
freq.    3051.24  E(vib)   ...       0.00 
freq.    3071.31  E(vib)   ...       0.00 
freq.    3098.67  E(vib)   ...       0.00 
freq.    3115.36  E(vib)   ...       0.00 
freq.    3116.24  E(vib)   ...       0.00 
freq.    3132.31  E(vib)   ...       0.00 
freq.    3135.85  E(vib)   ...       0.00 
freq.    3139.72  E(vib)   ...       0.00 
freq.    3141.39  E(vib)   ...       0.00 
freq.    3141.69  E(vib)   ...       0.00 
freq.    3161.67  E(vib)   ...       0.00 
freq.    3162.06  E(vib)   ...       0.00 
freq.    3162.58  E(vib)   ...       0.00 
freq.    3165.65  E(vib)   ...       0.00 
freq.    3171.15  E(vib)   ...       0.00 
freq.    3171.41  E(vib)   ...       0.00 
freq.    3173.17  E(vib)   ...       0.00 
freq.    3174.68  E(vib)   ...       0.00 

------------
INNER ENERGY
------------

The inner energy is: U= E(el) + E(ZPE) + E(vib) + E(rot) + E(trans)
    E(el)   - is the total energy from the electronic structure calculation
              = E(kin-el) + E(nuc-el) + E(el-el) + E(nuc-nuc)
    E(ZPE)  - the the zero temperature vibrational energy from the frequency calculation
    E(vib)  - the the finite temperature correction to E(ZPE) due to population
              of excited vibrational states
    E(rot)  - is the rotational thermal energy
    E(trans)- is the translational thermal energy

Summary of contributions to the inner energy U:
Electronic energy                ...  -1496.79996574 Eh
Zero point energy                ...      0.46544462 Eh     292.07 kcal/mol
Thermal vibrational correction   ...      0.02894755 Eh      18.16 kcal/mol
Thermal rotational correction    ...      0.00141627 Eh       0.89 kcal/mol
Thermal translational correction ...      0.00141627 Eh       0.89 kcal/mol
-----------------------------------------------------------------------
Total thermal energy                  -1496.30274103 Eh


Summary of corrections to the electronic energy:
(perhaps to be used in another calculation)
Total thermal correction                  0.03178009 Eh      19.94 kcal/mol
Non-thermal (ZPE) correction              0.46544462 Eh     292.07 kcal/mol
-----------------------------------------------------------------------
Total correction                          0.49722471 Eh     312.01 kcal/mol


--------
ENTHALPY
--------

The enthalpy is H = U + kB*T
                kB is Boltzmann's constant
Total free energy                 ...  -1496.30274103 Eh 
Thermal Enthalpy correction       ...      0.00094421 Eh       0.59 kcal/mol
-----------------------------------------------------------------------
Total Enthalpy                    ...  -1496.30179682 Eh


Note: Only C1 symmetry has been detected, increase convergence thresholds 
      if your molecule has a higher symmetry. Symmetry factor of 1.0 is   
      used for the rotational entropy correction. 
 

Note: Rotational entropy computed according to Herzberg 
Infrared and Raman Spectra, Chapter V,1, Van Nostrand Reinhold, 1945 
Point Group:  C1, Symmetry Number:   1  
Rotational constants in cm-1:     0.004750     0.002176     0.001717 

Vibrational entropy computed according to the QRRHO of S. Grimme
Chem.Eur.J. 2012 18 9955


-------
ENTROPY
-------

The entropy contributions are T*S = T*(S(el)+S(vib)+S(rot)+S(trans))
     S(el)   - electronic entropy
     S(vib)  - vibrational entropy
     S(rot)  - rotational entropy
     S(trans)- translational entropy
The entropies will be listed as multiplied by the temperature to get
units of energy

Electronic entropy                ...      0.00000000 Eh      0.00 kcal/mol
Vibrational entropy               ...      0.05349281 Eh     33.57 kcal/mol
Rotational entropy                ...      0.01793618 Eh     11.26 kcal/mol
Translational entropy             ...      0.02099036 Eh     13.17 kcal/mol
-----------------------------------------------------------------------
Final entropy term                ...      0.09241936 Eh     57.99 kcal/mol

In case the symmetry of your molecule has not been determined correctly
or in case you have a reason to use a different symmetry number we print 
out the resulting rotational entropy values for sn=1,12 :
 --------------------------------------------------------
|  sn= 1 | S(rot)=       0.01793618 Eh     11.26 kcal/mol|
|  sn= 2 | S(rot)=       0.01728173 Eh     10.84 kcal/mol|
|  sn= 3 | S(rot)=       0.01689889 Eh     10.60 kcal/mol|
|  sn= 4 | S(rot)=       0.01662727 Eh     10.43 kcal/mol|
|  sn= 5 | S(rot)=       0.01641658 Eh     10.30 kcal/mol|
|  sn= 6 | S(rot)=       0.01624444 Eh     10.19 kcal/mol|
|  sn= 7 | S(rot)=       0.01609889 Eh     10.10 kcal/mol|
|  sn= 8 | S(rot)=       0.01597281 Eh     10.02 kcal/mol|
|  sn= 9 | S(rot)=       0.01586161 Eh      9.95 kcal/mol|
|  sn=10 | S(rot)=       0.01576213 Eh      9.89 kcal/mol|
|  sn=11 | S(rot)=       0.01567214 Eh      9.83 kcal/mol|
|  sn=12 | S(rot)=       0.01558998 Eh      9.78 kcal/mol|
 --------------------------------------------------------


-------------------
GIBBS FREE ENERGY
-------------------

The Gibbs free energy is G = H - T*S

Total enthalpy                    ...  -1496.30179682 Eh 
Total entropy correction          ...     -0.09241936 Eh    -57.99 kcal/mol
-----------------------------------------------------------------------
Final Gibbs free energy         ...  -1496.39421617 Eh

For completeness - the Gibbs free energy minus the electronic energy
G-E(el)                           ...      0.40574957 Eh    254.61 kcal/mol



Timings for individual modules:

Sum of individual times         ...    92396.728 sec (=1539.945 min)
GTO integral calculation        ...      188.951 sec (=   3.149 min)   0.2 %
SCF iterations                  ...    12552.411 sec (= 209.207 min)  13.6 %
SCF Gradient evaluation         ...     3584.343 sec (=  59.739 min)   3.9 %
Geometry relaxation             ...       31.936 sec (=   0.532 min)   0.0 %
Numerical frequency calculation ...    76039.088 sec (=1267.318 min)  82.3 %
                             ****ORCA TERMINATED NORMALLY****
TOTAL RUN TIME: 1 days 1 hours 37 minutes 48 seconds 110 msec
‘Diketon_freqopt.cpcm’ -> ‘/home/rothe/Calc/Li_Path/THF/Diketon/Diketon_freqopt.cpcm’
‘Diketon_freqopt.densities’ -> ‘/home/rothe/Calc/Li_Path/THF/Diketon/Diketon_freqopt.densities’
‘Diketon_freqopt.engrad’ -> ‘/home/rothe/Calc/Li_Path/THF/Diketon/Diketon_freqopt.engrad’
‘Diketon_freqopt.gbw’ -> ‘/home/rothe/Calc/Li_Path/THF/Diketon/Diketon_freqopt.gbw’
‘Diketon_freqopt.hess’ -> ‘/home/rothe/Calc/Li_Path/THF/Diketon/Diketon_freqopt.hess’
‘Diketon_freqopt.job’ -> ‘/home/rothe/Calc/Li_Path/THF/Diketon/Diketon_freqopt.job’
‘Diketon_freqopt.opt’ -> ‘/home/rothe/Calc/Li_Path/THF/Diketon/Diketon_freqopt.opt’
‘Diketon_freqopt_property.txt’ -> ‘/home/rothe/Calc/Li_Path/THF/Diketon/Diketon_freqopt_property.txt’
‘Diketon_freqopt_trj.xyz’ -> ‘/home/rothe/Calc/Li_Path/THF/Diketon/Diketon_freqopt_trj.xyz’
‘Diketon_freqopt.xyz’ -> ‘/home/rothe/Calc/Li_Path/THF/Diketon/Diketon_freqopt.xyz’
