! Job execution by suborca V 5.02 !
Job started from clu.thch.uni-bonn.de, running /software/cluster/orca_5_0_2_linux_x86-64_openmpi411/orca from /software/cluster/orca_5_0_2_linux_x86-64_openmpi411 on boar231 in /tmp1/rothe/Diketon_sp__g3wLeO
Going to copy the following really necessary files:  

                                 *****************
                                 * O   R   C   A *
                                 *****************

                                            #,                                       
                                            ###                                      
                                            ####                                     
                                            #####                                    
                                            ######                                   
                                           ########,                                 
                                     ,,################,,,,,                         
                               ,,#################################,,                 
                          ,,##########################################,,             
                       ,#########################################, ''#####,          
                    ,#############################################,,   '####,        
                  ,##################################################,,,,####,       
                ,###########''''           ''''###############################       
              ,#####''   ,,,,##########,,,,          '''####'''          '####       
            ,##' ,,,,###########################,,,                        '##       
           ' ,,###''''                  '''############,,,                           
         ,,##''                                '''############,,,,        ,,,,,,###''
      ,#''                                            '''#######################'''  
     '                                                          ''''####''''         
             ,#######,   #######,   ,#######,      ##                                
            ,#'     '#,  ##    ##  ,#'     '#,    #''#        ######   ,####,        
            ##       ##  ##   ,#'  ##            #'  '#       #        #'  '#        
            ##       ##  #######   ##           ,######,      #####,   #    #        
            '#,     ,#'  ##    ##  '#,     ,#' ,#      #,         ##   #,  ,#        
             '#######'   ##     ##  '#######'  #'      '#     #####' # '####'        



                  #######################################################
                  #                        -***-                        #
                  #          Department of theory and spectroscopy      #
                  #    Directorship and core code : Frank Neese         #
                  #        Max Planck Institute fuer Kohlenforschung    #
                  #                Kaiser Wilhelm Platz 1               #
                  #                 D-45470 Muelheim/Ruhr               #
                  #                      Germany                        #
                  #                                                     #
                  #                  All rights reserved                #
                  #                        -***-                        #
                  #######################################################


                         Program Version 5.0.2 -  RELEASE  -


 With contributions from (in alphabetic order):
   Daniel Aravena         : Magnetic Suceptibility
   Michael Atanasov       : Ab Initio Ligand Field Theory (pilot matlab implementation)
   Alexander A. Auer      : GIAO ZORA, VPT2 properties, NMR spectrum
   Ute Becker             : Parallelization
   Giovanni Bistoni       : ED, misc. LED, open-shell LED, HFLD
   Martin Brehm           : Molecular dynamics
   Dmytro Bykov           : SCF Hessian
   Vijay G. Chilkuri      : MRCI spin determinant printing, contributions to CSF-ICE
   Dipayan Datta          : RHF DLPNO-CCSD density
   Achintya Kumar Dutta   : EOM-CC, STEOM-CC
   Dmitry Ganyushin       : Spin-Orbit,Spin-Spin,Magnetic field MRCI
   Miquel Garcia          : C-PCM and meta-GGA Hessian, CC/C-PCM, Gaussian charge scheme
   Yang Guo               : DLPNO-NEVPT2, F12-NEVPT2, CIM, IAO-localization
   Andreas Hansen         : Spin unrestricted coupled pair/coupled cluster methods
   Benjamin Helmich-Paris : MC-RPA, TRAH-SCF, COSX integrals
   Lee Huntington         : MR-EOM, pCC
   Robert Izsak           : Overlap fitted RIJCOSX, COSX-SCS-MP3, EOM
   Marcus Kettner         : VPT2
   Christian Kollmar      : KDIIS, OOCD, Brueckner-CCSD(T), CCSD density, CASPT2, CASPT2-K
   Simone Kossmann        : Meta GGA functionals, TD-DFT gradient, OOMP2, MP2 Hessian
   Martin Krupicka        : Initial AUTO-CI
   Lucas Lang             : DCDCAS
   Marvin Lechner         : AUTO-CI (C++ implementation), FIC-MRCC
   Dagmar Lenk            : GEPOL surface, SMD
   Dimitrios Liakos       : Extrapolation schemes; Compound Job, initial MDCI parallelization
   Dimitrios Manganas     : Further ROCIS development; embedding schemes
   Dimitrios Pantazis     : SARC Basis sets
   Anastasios Papadopoulos: AUTO-CI, single reference methods and gradients
   Taras Petrenko         : DFT Hessian,TD-DFT gradient, ASA, ECA, R-Raman, ABS, FL, XAS/XES, NRVS
   Peter Pinski           : DLPNO-MP2, DLPNO-MP2 Gradient
   Christoph Reimann      : Effective Core Potentials
   Marius Retegan         : Local ZFS, SOC
   Christoph Riplinger    : Optimizer, TS searches, QM/MM, DLPNO-CCSD(T), (RO)-DLPNO pert. Triples
   Tobias Risthaus        : Range-separated hybrids, TD-DFT gradient, RPA, STAB
   Michael Roemelt        : Original ROCIS implementation
   Masaaki Saitow         : Open-shell DLPNO-CCSD energy and density
   Barbara Sandhoefer     : DKH picture change effects
   Avijit Sen             : IP-ROCIS
   Kantharuban Sivalingam : CASSCF convergence, NEVPT2, FIC-MRCI
   Bernardo de Souza      : ESD, SOC TD-DFT
   Georgi Stoychev        : AutoAux, RI-MP2 NMR, DLPNO-MP2 response
   Willem Van den Heuvel  : Paramagnetic NMR
   Boris Wezisla          : Elementary symmetry handling
   Frank Wennmohs         : Technical directorship


 We gratefully acknowledge several colleagues who have allowed us to
 interface, adapt or use parts of their codes:
   Stefan Grimme, W. Hujo, H. Kruse, P. Pracht,  : VdW corrections, initial TS optimization,
                  C. Bannwarth, S. Ehlert          DFT functionals, gCP, sTDA/sTD-DF
   Ed Valeev, F. Pavosevic, A. Kumar             : LibInt (2-el integral package), F12 methods
   Garnet Chan, S. Sharma, J. Yang, R. Olivares  : DMRG
   Ulf Ekstrom                                   : XCFun DFT Library
   Mihaly Kallay                                 : mrcc  (arbitrary order and MRCC methods)
   Jiri Pittner, Ondrej Demel                    : Mk-CCSD
   Frank Weinhold                                : gennbo (NPA and NBO analysis)
   Christopher J. Cramer and Donald G. Truhlar   : smd solvation model
   Lars Goerigk                                  : TD-DFT with DH, B97 family of functionals
   V. Asgeirsson, H. Jonsson                     : NEB implementation
   FAccTs GmbH                                   : IRC, NEB, NEB-TS, DLPNO-Multilevel, CI-OPT
                                                   MM, QMMM, 2- and 3-layer-ONIOM, Crystal-QMMM,
                                                   LR-CPCM, SF, NACMEs, symmetry and pop. for TD-DFT,
                                                   nearIR, NL-DFT gradient (VV10), updates on ESD,
                                                   ML-optimized integration grids
   S Lehtola, MJT Oliveira, MAL Marques          : LibXC Library
   Liviu Ungur et al                             : ANISO software


 Your calculation uses the libint2 library for the computation of 2-el integrals
 For citations please refer to: http://libint.valeyev.net

 Your ORCA version has been built with support for libXC version: 5.1.0
 For citations please refer to: https://tddft.org/programs/libxc/

 This ORCA versions uses:
   CBLAS   interface :  Fast vector & matrix operations
   LAPACKE interface :  Fast linear algebra routines
   SCALAPACK package :  Parallel linear algebra routines
   Shared memory     :  Shared parallel matrices
   BLAS/LAPACK       :  OpenBLAS 0.3.15  USE64BITINT DYNAMIC_ARCH NO_AFFINITY Barcelona SINGLE_THREADED
        Core in use  :  Barcelona
   Copyright (c) 2011-2014, The OpenBLAS Project


Your calculation utilizes the atom-pairwise dispersion correction
with the Becke-Johnson damping scheme (D3BJ)
Cite in your paper:
S.Grimme, S.Ehrlich, L.Goerigk, J Comput Chem, (2011), 32, 1456–1465 
S.Grimme, J.Antony, S.Ehrlich and H.Krieg, J.Chem.Phys., 132, (2010), 154104 
   

================================================================================

----- Orbital basis set information -----
Your calculation utilizes the basis: def2-QZVP
   F. Weigend and R. Ahlrichs, Phys. Chem. Chem. Phys. 7, 3297 (2005).

----- AuxJK basis set information -----
Your calculation utilizes the auxiliary basis: def2/JK
   H-Ba, Hf-Rn: F. Weigend, J. Comput. Chem. 29, 167 (2008).

================================================================================
                                        WARNINGS
                       Please study these warnings very carefully!
================================================================================


INFO   : the flag for use of the SHARK integral package has been found!

================================================================================
                                       INPUT FILE
================================================================================
NAME = Diketon_sp.inp
|  1> ! PW6B95 D3BJ def2-QZVP RIJK def2/JK tightSCF CPCM(THF)
|  2> ! sp Pal8
|  3> 
|  4> * xyz 0 1  
|  5> C   -4.00703908942669      2.98959946358312     -0.38459550498393
|  6>   C   -3.84151355148400      1.70370753564122     -0.92066225686100
|  7>   C   -2.81314476662004      0.88652829928282     -0.44376920923899
|  8>   C   -1.94342431596653      1.33352609606963      0.54559501236399
|  9>   C   -2.11446093664613      2.62039448473880      1.08546838691802
| 10>   C   -3.14805234750211      3.43852598979951      0.62189055448849
| 11>   O   -4.97340998328946      3.86959248929326     -0.78445244332913
| 12>   C   -5.86444826436729      3.44220682388354     -1.83078707557476
| 13>   H   -5.30640304174476      3.22322098138493     -2.74807605360848
| 14>   H   -6.53931659031157      4.28188178865780     -1.99504978622229
| 15>   H   -6.43271004405669      2.55850712410195     -1.51958567441967
| 16>   C   -1.21005565473249      3.16374015208010      2.14108635971649
| 17>   C   0.15453488680885      2.52723290239889      2.33113163117573
| 18>   C   1.05704173604713      2.68614111915292      1.07350262986448
| 19>   H   0.05025120913164      1.45774089896944      2.54964963203045
| 20>   H   0.62184619045417      3.01114851060505      3.19316707736927
| 21>   H   -3.27460535806305      4.43359126650306      1.03641693527299
| 22>   H   -4.49889115437493      1.33554064967513     -1.69994441154997
| 23>   H   -2.69569418589232     -0.11005856190358     -0.85945700360222
| 24>   H   -1.15368690506671      0.68256174476640      0.90420038904117
| 25>   C   1.06112389843160      4.12490859163126      0.59303509450474
| 26>   O   -1.54165976910885      4.13960856624557      2.81362861097783
| 27>   C   2.46250526314452      2.16463756875441      1.39739899665407
| 28>   H   0.64163041995065      2.07524528661284      0.26798869200108
| 29>   C   3.34999047205592      2.03030390036687      0.16988085301211
| 30>   H   2.39155638507327      1.17045089155403      1.86164823529169
| 31>   H   2.95185101161798      2.80560530811556      2.13872302070754
| 32>   C   1.65430828626589      5.14554542677757      1.34860049720966
| 33>   C   0.41774767742045      4.46341677750139     -0.60424092363662
| 34>   C   0.36917916821292      5.78252692503126     -1.04005634384806
| 35>   C   0.96730719891426      6.79769347161033     -0.28158325356651
| 36>   C   1.61252784947295      6.46802356702018      0.91977851171162
| 37>   C   0.89010928862113      8.19187650998476     -0.78461007167458
| 38>   O   0.34232381353206      8.52725902822666     -1.82607290732484
| 39>   O   1.49842797385070      9.07565127340380      0.04104185317906
| 40>   C   1.45538318170872     10.45937791832496     -0.39625201854632
| 41>   H   1.97616893731397     11.01666160933440      0.38105559104061
| 42>   H   0.41794455678570     10.78854485240329     -0.48678482872709
| 43>   H   1.96307743524687     10.56096616325051     -1.35797736503834
| 44>   C   4.80411561472286      1.75381636498915      0.37468408278116
| 45>   O   2.87967744935223      2.12743936537305     -0.96187151635845
| 46>   C   5.35504538949384      1.55584759513001      1.65332079742018
| 47>   C   5.62615481885125      1.68684669349002     -0.75427109544107
| 48>   C   6.71544559729276      1.29320428395090      1.77834897514500
| 49>   C   7.54359137655334      1.22983918108885      0.65458130089234
| 50>   C   6.99281282336031      1.42875023764570     -0.62032665974711
| 51>   H   5.19837328007928      1.83933573927180     -1.74000639721206
| 52>   H   4.73248837375498      1.59913306777880      2.53981140509764
| 53>   H   7.14854573572996      1.13559637026399      2.76195173180431
| 54>   H   8.60133290871251      1.02844365229797      0.77966224040864
| 55>   O   7.71183023755837      1.38895748616584     -1.78198761334934
| 56>   C   9.12453134155479      1.13433772117688     -1.67673504824581
| 57>   H   9.61522506844454      1.91485040552843     -1.08461445015077
| 58>   H   9.49728695315826      1.15182506412916     -2.70058972256501
| 59>   H   9.30923573514458      0.15247915558060     -1.22653572310550
| 60>   H   -0.04551571067249      3.67915486133161     -1.19631852808313
| 61>   H   -0.12840125078327      6.04154816981490     -1.96924896242298
| 62>   H   2.14880768749708      4.90893780117787      2.28701351694601
| 63>   H   2.07524568878691      7.24722338898047      1.51523023340762
| 64> *
| 65> 
| 66>                          ****END OF INPUT****
================================================================================

                       ****************************
                       * Single Point Calculation *
                       ****************************

---------------------------------
CARTESIAN COORDINATES (ANGSTROEM)
---------------------------------
  C     -4.007039    2.989599   -0.384596
  C     -3.841514    1.703708   -0.920662
  C     -2.813145    0.886528   -0.443769
  C     -1.943424    1.333526    0.545595
  C     -2.114461    2.620394    1.085468
  C     -3.148052    3.438526    0.621891
  O     -4.973410    3.869592   -0.784452
  C     -5.864448    3.442207   -1.830787
  H     -5.306403    3.223221   -2.748076
  H     -6.539317    4.281882   -1.995050
  H     -6.432710    2.558507   -1.519586
  C     -1.210056    3.163740    2.141086
  C      0.154535    2.527233    2.331132
  C      1.057042    2.686141    1.073503
  H      0.050251    1.457741    2.549650
  H      0.621846    3.011149    3.193167
  H     -3.274605    4.433591    1.036417
  H     -4.498891    1.335541   -1.699944
  H     -2.695694   -0.110059   -0.859457
  H     -1.153687    0.682562    0.904200
  C      1.061124    4.124909    0.593035
  O     -1.541660    4.139609    2.813629
  C      2.462505    2.164638    1.397399
  H      0.641630    2.075245    0.267989
  C      3.349990    2.030304    0.169881
  H      2.391556    1.170451    1.861648
  H      2.951851    2.805605    2.138723
  C      1.654308    5.145545    1.348600
  C      0.417748    4.463417   -0.604241
  C      0.369179    5.782527   -1.040056
  C      0.967307    6.797693   -0.281583
  C      1.612528    6.468024    0.919779
  C      0.890109    8.191877   -0.784610
  O      0.342324    8.527259   -1.826073
  O      1.498428    9.075651    0.041042
  C      1.455383   10.459378   -0.396252
  H      1.976169   11.016662    0.381056
  H      0.417945   10.788545   -0.486785
  H      1.963077   10.560966   -1.357977
  C      4.804116    1.753816    0.374684
  O      2.879677    2.127439   -0.961872
  C      5.355045    1.555848    1.653321
  C      5.626155    1.686847   -0.754271
  C      6.715446    1.293204    1.778349
  C      7.543591    1.229839    0.654581
  C      6.992813    1.428750   -0.620327
  H      5.198373    1.839336   -1.740006
  H      4.732488    1.599133    2.539811
  H      7.148546    1.135596    2.761952
  H      8.601333    1.028444    0.779662
  O      7.711830    1.388957   -1.781988
  C      9.124531    1.134338   -1.676735
  H      9.615225    1.914850   -1.084614
  H      9.497287    1.151825   -2.700590
  H      9.309236    0.152479   -1.226536
  H     -0.045516    3.679155   -1.196319
  H     -0.128401    6.041548   -1.969249
  H      2.148808    4.908938    2.287014
  H      2.075246    7.247223    1.515230

----------------------------
CARTESIAN COORDINATES (A.U.)
----------------------------
  NO LB      ZA    FRAG     MASS         X           Y           Z
   0 C     6.0000    0    12.011   -7.572206    5.649524   -0.726780
   1 C     6.0000    0    12.011   -7.259409    3.219541   -1.739800
   2 C     6.0000    0    12.011   -5.316073    1.675296   -0.838602
   3 C     6.0000    0    12.011   -3.672540    2.519999    1.031025
   4 C     6.0000    0    12.011   -3.995752    4.951828    2.051238
   5 C     6.0000    0    12.011   -5.948957    6.497872    1.175203
   6 O     8.0000    0    15.999   -9.398383    7.312470   -1.482400
   7 C     6.0000    0    12.011  -11.082201    6.504828   -3.459686
   8 H     1.0000    0     1.008  -10.027649    6.091005   -5.193111
   9 H     1.0000    0     1.008  -12.357517    8.091584   -3.770098
  10 H     1.0000    0     1.008  -12.156060    4.834878   -2.871601
  11 C     6.0000    0    12.011   -2.286674    5.978602    4.046067
  12 C     6.0000    0    12.011    0.292029    4.775778    4.405200
  13 C     6.0000    0    12.011    1.997519    5.076071    2.028626
  14 H     1.0000    0     1.008    0.094961    2.754731    4.818140
  15 H     1.0000    0     1.008    1.175119    5.690246    6.034211
  16 H     1.0000    0     1.008   -6.188107    8.378273    1.958544
  17 H     1.0000    0     1.008   -8.501672    2.523806   -3.212429
  18 H     1.0000    0     1.008   -5.094124   -0.207981   -1.624138
  19 H     1.0000    0     1.008   -2.180152    1.289855    1.708691
  20 C     6.0000    0    12.011    2.005234    7.794948    1.120674
  21 O     8.0000    0    15.999   -2.913315    7.822726    5.316988
  22 C     6.0000    0    12.011    4.653461    4.090572    2.640701
  23 H     1.0000    0     1.008    1.212506    3.921645    0.506425
  24 C     6.0000    0    12.011    6.330565    3.836718    0.321028
  25 H     1.0000    0     1.008    4.519387    2.211832    3.518005
  26 H     1.0000    0     1.008    5.578190    5.301826    4.041601
  27 C     6.0000    0    12.011    3.126190    9.723672    2.548486
  28 C     6.0000    0    12.011    0.789429    8.434635   -1.141850
  29 C     6.0000    0    12.011    0.697648   10.927392   -1.965422
  30 C     6.0000    0    12.011    1.827946   12.845779   -0.532115
  31 C     6.0000    0    12.011    3.047236   12.222793    1.738129
  32 C     6.0000    0    12.011    1.682063   15.480403   -1.482698
  33 O     8.0000    0    15.999    0.646898   16.114184   -3.450778
  34 O     8.0000    0    15.999    2.831619   17.150495    0.077558
  35 C     6.0000    0    12.011    2.750276   19.765360   -0.748808
  36 H     1.0000    0     1.008    3.734418   20.818473    0.720091
  37 H     1.0000    0     1.008    0.789801   20.387395   -0.919890
  38 H     1.0000    0     1.008    3.709679   19.957334   -2.566205
  39 C     6.0000    0    12.011    9.078463    3.314233    0.708050
  40 O     8.0000    0    15.999    5.441802    4.020278   -1.817674
  41 C     6.0000    0    12.011   10.119569    2.940126    3.124324
  42 C     6.0000    0    12.011   10.631892    3.187678   -1.425366
  43 C     6.0000    0    12.011   12.690353    2.443802    3.360593
  44 C     6.0000    0    12.011   14.255322    2.324059    1.236979
  45 C     6.0000    0    12.011   13.214501    2.699947   -1.172248
  46 H     1.0000    0     1.008    9.823502    3.475841   -3.288136
  47 H     1.0000    0     1.008    8.943107    3.021924    4.799548
  48 H     1.0000    0     1.008   13.508794    2.145966    5.219332
  49 H     1.0000    0     1.008   16.254164    1.943477    1.473348
  50 O     8.0000    0    15.999   14.573247    2.624749   -3.367469
  51 C     6.0000    0    12.011   17.242865    2.143588   -3.168570
  52 H     1.0000    0     1.008   18.170142    3.618543   -2.049624
  53 H     1.0000    0     1.008   17.947271    2.176634   -5.103375
  54 H     1.0000    0     1.008   17.591906    0.288144   -2.317817
  55 H     1.0000    0     1.008   -0.086012    6.952595   -2.260714
  56 H     1.0000    0     1.008   -0.242643   11.416871   -3.721341
  57 H     1.0000    0     1.008    4.060658    9.276548    4.321829
  58 H     1.0000    0     1.008    3.921646   13.695267    2.863370

--------------------------------
INTERNAL COORDINATES (ANGSTROEM)
--------------------------------
 C      0   0   0     0.000000000000     0.00000000     0.00000000
 C      1   0   0     1.402955564701     0.00000000     0.00000000
 C      2   1   0     1.397408759414   119.49937558     0.00000000
 C      3   2   1     1.391065151460   120.99179361   359.39302509
 C      4   3   2     1.405968362347   119.41675628     0.87183801
 C      1   2   3     1.397285739087   119.81339263   359.75519492
 O      1   2   3     1.366801375821   124.17671903   179.60463770
 C      7   1   2     1.439244207208   117.33683814   359.44506094
 H      8   7   1     1.095804881778   110.64823649   299.21817135
 H      8   7   1     1.089717184384   105.31863061   180.30524354
 H      8   7   1     1.095761343419   110.73685595    61.35542903
 C      5   4   3     1.492482071138   122.07906615   180.48176909
 C     12   5   4     1.517684430363   118.73323574    19.47526146
 C     13  12   5     1.556085196644   112.17572063    63.33153918
 H     13  12   5     1.096557498505   110.39484887   302.30801761
 H     13  12   5     1.093462061927   107.29985263   184.40450772
 H      6   1   2     1.085358323205   119.86664160   179.92943656
 H      2   1   3     1.083961643842   120.96102667   180.07116226
 H      3   2   1     1.086175102451   119.04641177   179.60677267
 H      4   3   2     1.084452664262   119.84181798   179.81051489
 C     14  13  12     1.516877568048   110.75780768    48.93669806
 O     12   5   4     1.230688234351   120.79153496   196.87847041
 C     14  13  12     1.533689191296   109.03155847   173.58098258
 H     14  13  12     1.092983524052   108.54923535   291.35429042
 C     23  14  13     1.520682847759   113.22731837   169.17301780
 H     23  14  13     1.099530921802   109.72409775    49.23461808
 H     23  14  13     1.095381309449   110.69176393   292.84419186
 C     21  14  13     1.401587080774   121.40538889    67.87862794
 C     21  14  13     1.400710754324   119.91618331   250.36555738
 C     29  21  14     1.390088328811   120.88788118   177.75773236
 C     30  29  21     1.401285726426   120.18890528     0.00000000
 C     28  21  14     1.390892638403   120.89509101   182.18856002
 C     31  30  29     1.484163684228   118.35140412   180.04613770
 O     33  31  30     1.223599280116   124.69740313   359.69387837
 O     33  31  30     1.353813338784   112.52899762   179.66289561
 C     35  33  31     1.451818932320   115.16132919   180.07524650
 H     36  35  33     1.089031696246   104.98448837   179.50854534
 H     36  35  33     1.092165720343   109.90030242    60.01438705
 H     36  35  33     1.092240481152   109.88161255   298.95038254
 C     25  23  14     1.494278973512   118.27062929   169.91773809
 O     25  23  14     1.229427941549   120.85361076   348.88269342
 C     40  25  23     1.406281301373   122.13403172     2.96386428
 C     40  25  23     1.398132033987   118.05688135   182.63238828
 C     42  40  25     1.391151422208   119.43248197   179.57561879
 C     44  42  40     1.397388404726   121.05249768     0.32909078
 C     43  40  25     1.397250512135   120.43252290   180.11398109
 H     43  40  25     1.085322090052   119.66370856     0.28209754
 H     42  40  25     1.084120135173   120.85671294   359.96860148
 H     44  42  40     1.086227585398   119.91285567   180.21410075
 H     45  44  42     1.083984570601   119.59854375   179.69867649
 O     46  43  40     1.366757358171   116.00550170   180.27789541
 C     51  46  43     1.439317107665   117.34480703   179.57855844
 H     52  51  46     1.095713095081   110.67414467   299.29365083
 H     52  51  46     1.089738935374   105.31881316   180.37281891
 H     52  51  46     1.095829087131   110.73109736    61.45093110
 H     29  21  14     1.086386491811   119.15995332   357.62242653
 H     30  29  21     1.085392648322   120.72199050   179.87847112
 H     28  21  14     1.086798887523   119.96741464     1.71860744
 H     32  28  21     1.084353685028   120.07414402   179.95471441

---------------------------
INTERNAL COORDINATES (A.U.)
---------------------------
 C      0   0   0     0.000000000000     0.00000000     0.00000000
 C      1   0   0     2.651201795346     0.00000000     0.00000000
 C      2   1   0     2.640719852436   119.49937558     0.00000000
 C      3   2   1     2.628732170700   120.99179361   359.39302509
 C      4   3   2     2.656895157794   119.41675628     0.87183801
 C      1   2   3     2.640487377708   119.81339263   359.75519492
 O      1   2   3     2.582880279769   124.17671903   179.60463770
 C      7   1   2     2.719777391455   117.33683814   359.44506094
 H      8   7   1     2.070771122775   110.64823649   299.21817135
 H      8   7   1     2.059267041913   105.31863061   180.30524354
 H      8   7   1     2.070688847199   110.73685595    61.35542903
 C      5   4   3     2.820382374238   122.07906615   180.48176909
 C     12   5   4     2.868007931101   118.73323574    19.47526146
 C     13  12   5     2.940574862705   112.17572063    63.33153918
 H     13  12   5     2.072193362272   110.39484887   302.30801761
 H     13  12   5     2.066343834875   107.29985263   184.40450772
 H      6   1   2     2.051029988029   119.86664160   179.92943656
 H      2   1   3     2.048390646537   120.96102667   180.07116226
 H      3   2   1     2.052573477117   119.04641177   179.60677267
 H      4   3   2     2.049318540656   119.84181798   179.81051489
 C     14  13  12     2.866483182299   110.75780768    48.93669806
 O     12   5   4     2.325663719162   120.79153496   196.87847041
 C     14  13  12     2.898252546105   109.03155847   173.58098258
 H     14  13  12     2.065439529345   108.54923535   291.35429042
 C     23  14  13     2.873674118816   113.22731837   169.17301780
 H     23  14  13     2.077812317983   109.72409775    49.23461808
 H     23  14  13     2.069970687074   110.69176393   292.84419186
 C     21  14  13     2.648615735505   121.40538889    67.87862794
 C     21  14  13     2.646959718511   119.91618331   250.36555738
 C     29  21  14     2.626886243413   120.88788118   177.75773236
 C     30  29  21     2.648046258318   120.18890528     0.00000000
 C     28  21  14     2.628406168269   120.89509101   182.18856002
 C     31  30  29     2.804662901102   118.35140412   180.04613770
 O     33  31  30     2.312267537083   124.69740313   359.69387837
 O     33  31  30     2.558336446752   112.52899762   179.66289561
 C     35  33  31     2.743540178127   115.16132919   180.07524650
 H     36  35  33     2.057971657064   104.98448837   179.50854534
 H     36  35  33     2.063894104305   109.90030242    60.01438705
 H     36  35  33     2.064035381760   109.88161255   298.95038254
 C     25  23  14     2.823778027614   118.27062929   169.91773809
 O     25  23  14     2.323282110919   120.85361076   348.88269342
 C     40  25  23     2.657486526850   122.13403172     2.96386428
 C     40  25  23     2.642086643297   118.05688135   182.63238828
 C     42  40  25     2.628895198788   119.43248197   179.57561879
 C     44  42  40     2.640681387650   121.05249768     0.32909078
 C     43  40  25     2.640420808416   120.43252290   180.11398109
 H     43  40  25     2.050961517294   119.66370856     0.28209754
 H     42  40  25     2.048690151747   120.85671294   359.96860148
 H     44  42  40     2.052672655512   119.91285567   180.21410075
 H     45  44  42     2.048433971833   119.59854375   179.69867649
 O     46  43  40     2.582797098465   116.00550170   180.27789541
 C     51  46  43     2.719915153354   117.34480703   179.57855844
 H     52  51  46     2.070597671053   110.67414467   299.29365083
 H     52  51  46     2.059308145328   105.31881316   180.37281891
 H     52  51  46     2.070816864263   110.73109736    61.45093110
 H     29  21  14     2.052972945114   119.15995332   357.62242653
 H     30  29  21     2.051094853100   120.72199050   179.87847112
 H     28  21  14     2.053752260068   119.96741464     1.71860744
 H     32  28  21     2.049131497011   120.07414402   179.95471441

---------------------
BASIS SET INFORMATION
---------------------
There are 3 groups of distinct atoms

 Group   1 Type C   : 15s8p3d2f1g contracted to 7s4p3d2f1g pattern {8211111/5111/111/11/1}
 Group   2 Type O   : 15s8p3d2f1g contracted to 7s4p3d2f1g pattern {8211111/5111/111/11/1}
 Group   3 Type H   : 7s3p2d1f contracted to 4s3p2d1f pattern {4111/111/11/1}

Atom   0C    basis set group =>   1
Atom   1C    basis set group =>   1
Atom   2C    basis set group =>   1
Atom   3C    basis set group =>   1
Atom   4C    basis set group =>   1
Atom   5C    basis set group =>   1
Atom   6O    basis set group =>   2
Atom   7C    basis set group =>   1
Atom   8H    basis set group =>   3
Atom   9H    basis set group =>   3
Atom  10H    basis set group =>   3
Atom  11C    basis set group =>   1
Atom  12C    basis set group =>   1
Atom  13C    basis set group =>   1
Atom  14H    basis set group =>   3
Atom  15H    basis set group =>   3
Atom  16H    basis set group =>   3
Atom  17H    basis set group =>   3
Atom  18H    basis set group =>   3
Atom  19H    basis set group =>   3
Atom  20C    basis set group =>   1
Atom  21O    basis set group =>   2
Atom  22C    basis set group =>   1
Atom  23H    basis set group =>   3
Atom  24C    basis set group =>   1
Atom  25H    basis set group =>   3
Atom  26H    basis set group =>   3
Atom  27C    basis set group =>   1
Atom  28C    basis set group =>   1
Atom  29C    basis set group =>   1
Atom  30C    basis set group =>   1
Atom  31C    basis set group =>   1
Atom  32C    basis set group =>   1
Atom  33O    basis set group =>   2
Atom  34O    basis set group =>   2
Atom  35C    basis set group =>   1
Atom  36H    basis set group =>   3
Atom  37H    basis set group =>   3
Atom  38H    basis set group =>   3
Atom  39C    basis set group =>   1
Atom  40O    basis set group =>   2
Atom  41C    basis set group =>   1
Atom  42C    basis set group =>   1
Atom  43C    basis set group =>   1
Atom  44C    basis set group =>   1
Atom  45C    basis set group =>   1
Atom  46H    basis set group =>   3
Atom  47H    basis set group =>   3
Atom  48H    basis set group =>   3
Atom  49H    basis set group =>   3
Atom  50O    basis set group =>   2
Atom  51C    basis set group =>   1
Atom  52H    basis set group =>   3
Atom  53H    basis set group =>   3
Atom  54H    basis set group =>   3
Atom  55H    basis set group =>   3
Atom  56H    basis set group =>   3
Atom  57H    basis set group =>   3
Atom  58H    basis set group =>   3
----------------------------------
AUXILIARY/JK BASIS SET INFORMATION
----------------------------------
There are 3 groups of distinct atoms

 Group   1 Type C   : 14s10p6d2f1g contracted to 10s8p5d1f1g pattern {5111111111/31111111/21111/2/1}
 Group   2 Type O   : 14s10p6d2f1g contracted to 10s8p4d2f1g pattern {5111111111/31111111/3111/11/1}
 Group   3 Type H   : 4s2p2d contracted to 2s2p2d pattern {31/11/11}

Atom   0C    basis set group =>   1
Atom   1C    basis set group =>   1
Atom   2C    basis set group =>   1
Atom   3C    basis set group =>   1
Atom   4C    basis set group =>   1
Atom   5C    basis set group =>   1
Atom   6O    basis set group =>   2
Atom   7C    basis set group =>   1
Atom   8H    basis set group =>   3
Atom   9H    basis set group =>   3
Atom  10H    basis set group =>   3
Atom  11C    basis set group =>   1
Atom  12C    basis set group =>   1
Atom  13C    basis set group =>   1
Atom  14H    basis set group =>   3
Atom  15H    basis set group =>   3
Atom  16H    basis set group =>   3
Atom  17H    basis set group =>   3
Atom  18H    basis set group =>   3
Atom  19H    basis set group =>   3
Atom  20C    basis set group =>   1
Atom  21O    basis set group =>   2
Atom  22C    basis set group =>   1
Atom  23H    basis set group =>   3
Atom  24C    basis set group =>   1
Atom  25H    basis set group =>   3
Atom  26H    basis set group =>   3
Atom  27C    basis set group =>   1
Atom  28C    basis set group =>   1
Atom  29C    basis set group =>   1
Atom  30C    basis set group =>   1
Atom  31C    basis set group =>   1
Atom  32C    basis set group =>   1
Atom  33O    basis set group =>   2
Atom  34O    basis set group =>   2
Atom  35C    basis set group =>   1
Atom  36H    basis set group =>   3
Atom  37H    basis set group =>   3
Atom  38H    basis set group =>   3
Atom  39C    basis set group =>   1
Atom  40O    basis set group =>   2
Atom  41C    basis set group =>   1
Atom  42C    basis set group =>   1
Atom  43C    basis set group =>   1
Atom  44C    basis set group =>   1
Atom  45C    basis set group =>   1
Atom  46H    basis set group =>   3
Atom  47H    basis set group =>   3
Atom  48H    basis set group =>   3
Atom  49H    basis set group =>   3
Atom  50O    basis set group =>   2
Atom  51C    basis set group =>   1
Atom  52H    basis set group =>   3
Atom  53H    basis set group =>   3
Atom  54H    basis set group =>   3
Atom  55H    basis set group =>   3
Atom  56H    basis set group =>   3
Atom  57H    basis set group =>   3
Atom  58H    basis set group =>   3


           ************************************************************
           *        Program running with 8 parallel MPI-processes     *
           *              working on a common directory               *
           ************************************************************
------------------------------------------------------------------------------
                           ORCA GTO INTEGRAL CALCULATION
                           -- RI-GTO INTEGRALS CHOSEN --
------------------------------------------------------------------------------
------------------------------------------------------------------------------
                   ___                                                        
                  /   \      - P O W E R E D   B Y -                         
                 /     \                                                     
                 |  |  |   _    _      __       _____    __    __             
                 |  |  |  | |  | |    /  \     |  _  \  |  |  /  |          
                  \  \/   | |  | |   /    \    | | | |  |  | /  /          
                 / \  \   | |__| |  /  /\  \   | |_| |  |  |/  /          
                |  |  |   |  __  | /  /__\  \  |    /   |      \           
                |  |  |   | |  | | |   __   |  |    \   |  |\   \          
                \     /   | |  | | |  |  |  |  | |\  \  |  | \   \       
                 \___/    |_|  |_| |__|  |__|  |_| \__\ |__|  \__/        
                                                                              
                      - O R C A' S   B I G   F R I E N D -                    
                                      &                                       
                       - I N T E G R A L  F E E D E R -                       
                                                                              
 v1 FN, 2020, v2 2021                                                         
------------------------------------------------------------------------------


Reading SHARK input file Diketon_sp.SHARKINP.tmp ... ok
----------------------
SHARK INTEGRAL PACKAGE
----------------------

Number of atoms                             ...     59
Number of basis functions                   ...   2661
Number of shells                            ...    821
Maximum angular momentum                    ...      4
Integral batch strategy                     ... SHARK/LIBINT Hybrid
RI-J (if used) integral strategy            ... SPLIT-RIJ (Revised 2003 algorithm where possible)
Printlevel                                  ...      1
Contraction scheme used                     ... SEGMENTED contraction
Coulomb Range Separation                    ... NOT USED
Exchange Range Separation                   ... NOT USED
Finite Nucleus Model                        ... NOT USED
Auxiliary Coulomb fitting basis             ... NOT available
Auxiliary J/K fitting basis                 ... AVAILABLE
   # of basis functions in Aux-JK           ...   2955
   # of shells in Aux-JK                    ...    981
   Maximum angular momentum in Aux-JK       ...      4
Auxiliary Correlation fitting basis         ... NOT available
Auxiliary 'external' fitting basis          ... NOT available
Integral threshold                          ...     2.500000e-11
Primitive cut-off                           ...     2.500000e-12
Primitive pair pre-selection threshold      ...     2.500000e-12

Calculating pre-screening integrals         ... done (  3.1 sec) Dimension = 821
Organizing shell pair data                  ... done (  6.0 sec)
Shell pair information
Total number of shell pairs                 ...    337431
Shell pairs after pre-screening             ...    149961
Total number of primitive shell pairs       ...    840603
Primitive shell pairs kept                  ...    253975
          la=0 lb=0:  23886 shell pairs
          la=1 lb=0:  35142 shell pairs
          la=1 lb=1:  12551 shell pairs
          la=2 lb=0:  20482 shell pairs
          la=2 lb=1:  15445 shell pairs
          la=2 lb=2:   4514 shell pairs
          la=3 lb=0:  11815 shell pairs
          la=3 lb=1:   8953 shell pairs
          la=3 lb=2:   5047 shell pairs
          la=3 lb=3:   1462 shell pairs
          la=4 lb=0:   4307 shell pairs
          la=4 lb=1:   3293 shell pairs
          la=4 lb=2:   1820 shell pairs
          la=4 lb=3:   1039 shell pairs
          la=4 lb=4:    205 shell pairs

Calculating one electron integrals          ... done (  1.2 sec)
Calculating RI/JK V-Matrix + Cholesky decomp... done (  1.2 sec)
Calculating Nuclear repulsion               ... done (  0.0 sec) ENN=   3148.833892543775 Eh

SHARK setup successfully completed in  20.2 seconds

Maximum memory used throughout the entire GTOINT-calculation: 281.4 MB


           ************************************************************
           *        Program running with 8 parallel MPI-processes     *
           *              working on a common directory               *
           ************************************************************
-------------------------------------------------------------------------------
                                 ORCA SCF
-------------------------------------------------------------------------------

------------
SCF SETTINGS
------------
Hamiltonian:
 Density Functional     Method          .... DFT(GTOs)
 Exchange Functional    Exchange        .... PW6
 Correlation Functional Correlation     .... B95
 Gradients option       PostSCFGGA      .... off
 Hybrid DFT is turned on
   Fraction HF Exchange ScalHFX         ....  0.280000
   Scaling of DF-GGA-X  ScalDFX         ....  0.720000
   Scaling of DF-GGA-C  ScalDFC         ....  1.000000
   Scaling of DF-LDA-C  ScalLDAC        ....  1.000000
   Perturbative correction              ....  0.000000
   Density functional embedding theory  .... OFF
   NL short-range parameter             ....  9.000000
 RI-approximation to the Coulomb term is turned on
   Number of AuxJK basis functions      .... 2955
   RI-JK (J+K treated both via RI)      .... on


General Settings:
 Integral files         IntName         .... Diketon_sp
 Hartree-Fock type      HFTyp           .... RHF
 Total Charge           Charge          ....    0
 Multiplicity           Mult            ....    1
 Number of Electrons    NEL             ....  236
 Basis Dimension        Dim             .... 2661
 Nuclear Repulsion      ENuc            ....   3148.8338925438 Eh

Convergence Acceleration:
 DIIS                   CNVDIIS         .... on
   Start iteration      DIISMaxIt       ....    12
   Startup error        DIISStart       ....  0.200000
   # of expansion vecs  DIISMaxEq       ....     5
   Bias factor          DIISBfac        ....   1.050
   Max. coefficient     DIISMaxC        ....  10.000
 Trust-Rad. Augm. Hess. CNVTRAH         .... auto
   Auto Start mean grad. ratio tolernc. ....  1.125000
   Auto Start start iteration           ....    20
   Auto Start num. interpolation iter.  ....    10
   Max. Number of Micro iterations      ....    16
   Max. Number of Macro iterations      .... Maxiter - #DIIS iter
   Number of Davidson start vectors     ....     2
   Converg. threshold I  (grad. norm)   ....   1.000e-05
   Converg. threshold II (energy diff.) ....   1.000e-08
   Grad. Scal. Fac. for Micro threshold ....   0.100
   Minimum threshold for Micro iter.    ....   0.010
   NR start threshold (gradient norm)   ....   0.001
   Initial trust radius                 ....   0.400
   Minimum AH scaling param. (alpha)    ....   1.000
   Maximum AH scaling param. (alpha)    .... 1000.000
   Orbital update algorithm             .... Taylor
   White noise on init. David. guess    .... on
   Maximum white noise                  ....   0.010
   Quad. conv. algorithm                .... NR
 SOSCF                  CNVSOSCF        .... on
   Start iteration      SOSCFMaxIt      ....   150
   Startup grad/error   SOSCFStart      ....  0.003300
 Level Shifting         CNVShift        .... on
   Level shift para.    LevelShift      ....    0.2500
   Turn off err/grad.   ShiftErr        ....    0.0010
 Zerner damping         CNVZerner       .... off
 Static damping         CNVDamp         .... on
   Fraction old density DampFac         ....    0.7000
   Max. Damping (<1)    DampMax         ....    0.9800
   Min. Damping (>=0)   DampMin         ....    0.0000
   Turn off err/grad.   DampErr         ....    0.1000
 Fernandez-Rico         CNVRico         .... off

SCF Procedure:
 Maximum # iterations   MaxIter         ....   125
 SCF integral mode      SCFMode         .... Direct
   Integral package                     .... SHARK and LIBINT hybrid scheme
 Reset frequency        DirectResetFreq ....    20
 Integral Threshold     Thresh          ....  2.500e-11 Eh
 Primitive CutOff       TCut            ....  2.500e-12 Eh

Convergence Tolerance:
 Convergence Check Mode ConvCheckMode   .... Total+1el-Energy
 Convergence forced     ConvForced      .... 0
 Energy Change          TolE            ....  1.000e-08 Eh
 1-El. energy change                    ....  1.000e-05 Eh
 Orbital Gradient       TolG            ....  1.000e-05
 Orbital Rotation angle TolX            ....  1.000e-05
 DIIS Error             TolErr          ....  5.000e-07


Diagonalization of the overlap matrix:
Smallest eigenvalue                        ... 4.376e-06
Time for diagonalization                   ...    4.465 sec
Threshold for overlap eigenvalues          ... 1.000e-08
Number of eigenvalues below threshold      ... 0
Time for construction of square roots      ...    3.185 sec
Total time needed                          ...    7.706 sec

Time for model grid setup =    6.121 sec

------------------------------
INITIAL GUESS: MODEL POTENTIAL
------------------------------
Loading Hartree-Fock densities                     ... done
Calculating cut-offs                               ... done
Initializing the effective Hamiltonian             ... done
Setting up the integral package (SHARK)            ... done
Starting the Coulomb interaction                   ... done (  10.1 sec)
Reading the grid                                   ... done
Mapping shells                                     ... done
Starting the XC term evaluation                    ... done (   4.9 sec)
  promolecular density results
     # of electrons  =    235.981993587
     EX              =   -198.898368986
     EC              =    -15.186654174
     EX+EC           =   -214.085023159
Transforming the Hamiltonian                       ... done (   2.8 sec)
Diagonalizing the Hamiltonian                      ... done (   5.1 sec)
Back transforming the eigenvectors                 ... done (   1.5 sec)
Now organizing SCF variables                       ... done
                      ------------------
                      INITIAL GUESS DONE (  31.0 sec)
                      ------------------
-------------------
DFT GRID GENERATION
-------------------

General Integration Accuracy     IntAcc      ... 4.388
Radial Grid Type                 RadialGrid  ... OptM3 with GC (2021)
Angular Grid (max. ang.)         AngularGrid ... 4 (Lebedev-302)
Angular grid pruning method      GridPruning ... 4 (adaptive)
Weight generation scheme         WeightScheme... Becke
Basis function cutoff            BFCut       ... 1.0000e-11
Integration weight cutoff        WCut        ... 1.0000e-14
Angular grids for H and He will be reduced by one unit
Partially contracted basis set               ... off
Rotationally invariant grid construction     ... off

Total number of grid points                  ...   287571
Total number of batches                      ...     4524
Average number of points per batch           ...       63
Average number of grid points per atom       ...     4874
Time for grid setup =   16.737 sec


--------------------
CPCM SOLVATION MODEL
--------------------
CPCM parameters:
  Epsilon                                         ...       7.2500
  Refrac                                          ...       1.4070
  Rsolv                                           ...       1.3000
  Surface type                                    ... GAUSSIAN VDW
  Epsilon function type                           ...         CPCM
Radii:
 Radius for C  used is    3.8550 Bohr (=   2.0400 Ang.)
 Radius for O  used is    3.4469 Bohr (=   1.8240 Ang.)
 Radius for H  used is    2.4944 Bohr (=   1.3200 Ang.)
Calculating surface                               ...        done! (  0.0s)
GEPOL surface points                              ...         3080
GEPOL Volume                                      ...    3599.9685
GEPOL Surface-area                                ...    1804.2070
Calculating surface distance matrix               ...        done! (  0.3s)
Performing Cholesky decomposition & store         ...        done! (  1.3s)
Overall time for CPCM initialization              ...                 1.5s

Warning (ORCA_SCF): Not enough memory available!
                    Memory available for SCF calculation:         1024 MB
                    Memory needed (estimated)           :         1324 MB


--------------
SCF ITERATIONS
--------------
ITER       Energy         Delta-E        Max-DP      RMS-DP      [F,P]     Damp
  0  -1497.3542744565   0.000000000000 0.04980568  0.00023362  0.3730673 0.7000
  1  -1497.2862610311   0.068013425375 0.06794184  0.00024869  0.2004008 0.7000
                               ***Turning on DIIS***
  2  -1497.5998689977  -0.313607966534 0.09906921  0.00045055  0.0618082 0.0000
  3  -1498.2680978101  -0.668228812423 0.02602030  0.00007886  0.1249362 0.7000
  4  -1498.4165895716  -0.148491761513 0.09756196  0.00030149  0.0910762 0.0000
  5  -1498.4189613796  -0.002371807970 0.00792635  0.00003882  0.0381480 0.0000
  6  -1498.4254181922  -0.006456812638 0.00546712  0.00001833  0.0118660 0.0000
                      *** Initiating the SOSCF procedure ***
                           *** Shutting down DIIS ***
                      *** Re-Reading the Fockian *** 
                      *** Removing any level shift *** 
ITER      Energy       Delta-E        Grad      Rot      Max-DP    RMS-DP
  7  -1498.42592812  -0.0005099255  0.000554  0.000554  0.002361  0.000007
  8  -1498.42600230  -0.0000741854  0.000364  0.001175  0.003146  0.000008
  9  -1498.42600043   0.0000018770  0.000419  0.000507  0.000804  0.000003
 10  -1498.42601635  -0.0000159224  0.000066  0.000146  0.000577  0.000002
 11  -1498.42601631   0.0000000386  0.000065  0.000096  0.000189  0.000001
 12  -1498.42601750  -0.0000011948  0.000022  0.000040  0.000087  0.000000
 13  -1498.42601747   0.0000000335  0.000026  0.000021  0.000052  0.000000
                  ***Gradient check signals convergence***
              ***Rediagonalizing the Fockian in SOSCF/NRSCF***

               *****************************************************
               *                     SUCCESS                       *
               *           SCF CONVERGED AFTER  14 CYCLES          *
               *****************************************************


----------------
TOTAL SCF ENERGY
----------------

Total Energy       :        -1498.42601754 Eh          -40774.24486 eV

Components:
Nuclear Repulsion  :         3148.83389254 Eh           85684.12631 eV
Electronic Energy  :        -4647.25991008 Eh         -126458.37117 eV
One Electron Energy:        -8300.37616453 Eh         -225864.71818 eV
Two Electron Energy:         3653.11625445 Eh           99406.34700 eV
CPCM Dielectric    :           -0.03649661 Eh              -0.99312 eV

Virial components:
Potential Energy   :        -2989.72223195 Eh          -81354.47791 eV
Kinetic Energy     :         1491.29621441 Eh           40580.23305 eV
Virial Ratio       :            2.00478094


DFT components:
N(Alpha)           :      118.000051320265 electrons
N(Beta)            :      118.000051320265 electrons
N(Total)           :      236.000102640530 electrons
E(X)               :     -145.942555116193 Eh       
E(C)               :       -8.383555891242 Eh       
E(XC)              :     -154.326111007435 Eh       
DFET-embed. en.    :        0.000000000000 Eh       
CPCM Solvation Model Properties:
Surface-charge          :           -0.04138349
Charge-correction       :           -0.00030728 Eh              -0.00836 eV
Free-energy (cav+disp)  :  This term is not implemented in the current solvation scheme

---------------
SCF CONVERGENCE
---------------

  Last Energy change         ...   -6.6052e-08  Tolerance :   1.0000e-08
  Last MAX-Density change    ...    8.5892e-05  Tolerance :   1.0000e-07
  Last RMS-Density change    ...    3.3100e-07  Tolerance :   5.0000e-09
  Last Orbital Gradient      ...    1.8394e-06  Tolerance :   1.0000e-05
  Last Orbital Rotation      ...    6.1148e-06  Tolerance :   1.0000e-05

             **** THE GBW FILE WAS UPDATED (Diketon_sp.gbw) ****
             **** DENSITY Diketon_sp.scfp WAS UPDATED ****
             **** ENERGY FILE WAS UPDATED (Diketon_sp.en.tmp) ****
             **** THE GBW FILE WAS UPDATED (Diketon_sp.gbw) ****
             **** DENSITY Diketon_sp.scfp WAS UPDATED ****
----------------
ORBITAL ENERGIES
----------------

  NO   OCC          E(Eh)            E(eV) 
   0   2.0000     -19.344191      -526.3822 
   1   2.0000     -19.332910      -526.0752 
   2   2.0000     -19.332092      -526.0530 
   3   2.0000     -19.293666      -525.0074 
   4   2.0000     -19.292562      -524.9773 
   5   2.0000     -19.287793      -524.8475 
   6   2.0000     -10.433737      -283.9164 
   7   2.0000     -10.397929      -282.9420 
   8   2.0000     -10.395865      -282.8859 
   9   2.0000     -10.371863      -282.2327 
  10   2.0000     -10.370992      -282.2090 
  11   2.0000     -10.346294      -281.5370 
  12   2.0000     -10.345484      -281.5149 
  13   2.0000     -10.345407      -281.5128 
  14   2.0000     -10.322389      -280.8865 
  15   2.0000     -10.321093      -280.8512 
  16   2.0000     -10.320829      -280.8440 
  17   2.0000     -10.320222      -280.8275 
  18   2.0000     -10.320056      -280.8230 
  19   2.0000     -10.313147      -280.6350 
  20   2.0000     -10.313128      -280.6345 
  21   2.0000     -10.312528      -280.6181 
  22   2.0000     -10.312282      -280.6114 
  23   2.0000     -10.311595      -280.5928 
  24   2.0000     -10.311261      -280.5837 
  25   2.0000     -10.311164      -280.5810 
  26   2.0000     -10.309940      -280.5477 
  27   2.0000     -10.309424      -280.5337 
  28   2.0000     -10.309077      -280.5243 
  29   2.0000     -10.308995      -280.5220 
  30   2.0000     -10.308349      -280.5044 
  31   2.0000     -10.307063      -280.4695 
  32   2.0000     -10.305577      -280.4290 
  33   2.0000      -1.135223       -30.8910 
  34   2.0000      -1.098703       -29.8972 
  35   2.0000      -1.097855       -29.8741 
  36   2.0000      -1.077754       -29.3272 
  37   2.0000      -1.075139       -29.2560 
  38   2.0000      -1.047482       -28.5034 
  39   2.0000      -0.900296       -24.4983 
  40   2.0000      -0.892224       -24.2786 
  41   2.0000      -0.891448       -24.2575 
  42   2.0000      -0.853183       -23.2163 
  43   2.0000      -0.803580       -21.8665 
  44   2.0000      -0.799545       -21.7567 
  45   2.0000      -0.789762       -21.4905 
  46   2.0000      -0.788882       -21.4666 
  47   2.0000      -0.784815       -21.3559 
  48   2.0000      -0.778360       -21.1803 
  49   2.0000      -0.753859       -20.5136 
  50   2.0000      -0.742801       -20.2126 
  51   2.0000      -0.722650       -19.6643 
  52   2.0000      -0.721896       -19.6438 
  53   2.0000      -0.687786       -18.7156 
  54   2.0000      -0.657566       -17.8933 
  55   2.0000      -0.653408       -17.7801 
  56   2.0000      -0.639430       -17.3998 
  57   2.0000      -0.630231       -17.1495 
  58   2.0000      -0.629902       -17.1405 
  59   2.0000      -0.614055       -16.7093 
  60   2.0000      -0.587653       -15.9909 
  61   2.0000      -0.577387       -15.7115 
  62   2.0000      -0.573205       -15.5977 
  63   2.0000      -0.556937       -15.1550 
  64   2.0000      -0.548880       -14.9358 
  65   2.0000      -0.537206       -14.6181 
  66   2.0000      -0.523666       -14.2497 
  67   2.0000      -0.511938       -13.9305 
  68   2.0000      -0.510149       -13.8819 
  69   2.0000      -0.509305       -13.8589 
  70   2.0000      -0.507884       -13.8202 
  71   2.0000      -0.503940       -13.7129 
  72   2.0000      -0.499891       -13.6027 
  73   2.0000      -0.493628       -13.4323 
  74   2.0000      -0.490103       -13.3364 
  75   2.0000      -0.489282       -13.3140 
  76   2.0000      -0.482744       -13.1361 
  77   2.0000      -0.475560       -12.9406 
  78   2.0000      -0.470695       -12.8083 
  79   2.0000      -0.467480       -12.7208 
  80   2.0000      -0.461518       -12.5586 
  81   2.0000      -0.458914       -12.4877 
  82   2.0000      -0.454319       -12.3627 
  83   2.0000      -0.451478       -12.2853 
  84   2.0000      -0.444387       -12.0924 
  85   2.0000      -0.443100       -12.0574 
  86   2.0000      -0.433467       -11.7952 
  87   2.0000      -0.429841       -11.6966 
  88   2.0000      -0.426295       -11.6001 
  89   2.0000      -0.421421       -11.4675 
  90   2.0000      -0.417756       -11.3677 
  91   2.0000      -0.409004       -11.1296 
  92   2.0000      -0.405969       -11.0470 
  93   2.0000      -0.396791       -10.7972 
  94   2.0000      -0.395018       -10.7490 
  95   2.0000      -0.390743       -10.6327 
  96   2.0000      -0.389281       -10.5929 
  97   2.0000      -0.388528       -10.5724 
  98   2.0000      -0.384200       -10.4546 
  99   2.0000      -0.382095       -10.3973 
 100   2.0000      -0.376353       -10.2411 
 101   2.0000      -0.372039       -10.1237 
 102   2.0000      -0.357416        -9.7258 
 103   2.0000      -0.355559        -9.6753 
 104   2.0000      -0.353889        -9.6298 
 105   2.0000      -0.352449        -9.5906 
 106   2.0000      -0.348800        -9.4913 
 107   2.0000      -0.344752        -9.3812 
 108   2.0000      -0.330555        -8.9949 
 109   2.0000      -0.308413        -8.3923 
 110   2.0000      -0.290082        -7.8935 
 111   2.0000      -0.286593        -7.7986 
 112   2.0000      -0.283165        -7.7053 
 113   2.0000      -0.281195        -7.6517 
 114   2.0000      -0.275075        -7.4852 
 115   2.0000      -0.268637        -7.3100 
 116   2.0000      -0.251317        -6.8387 
 117   2.0000      -0.250236        -6.8093 
 118   0.0000      -0.066171        -1.8006 
 119   0.0000      -0.062903        -1.7117 
 120   0.0000      -0.051719        -1.4074 
 121   0.0000      -0.013996        -0.3809 
 122   0.0000      -0.009866        -0.2685 
 123   0.0000      -0.008481        -0.2308 
 124   0.0000       0.016546         0.4502 
 125   0.0000       0.026799         0.7292 
 126   0.0000       0.028428         0.7736 
 127   0.0000       0.031874         0.8673 
 128   0.0000       0.035659         0.9703 
 129   0.0000       0.038180         1.0389 
 130   0.0000       0.041832         1.1383 
 131   0.0000       0.044648         1.2149 
 132   0.0000       0.047738         1.2990 
 133   0.0000       0.049330         1.3423 
 134   0.0000       0.052957         1.4410 
 135   0.0000       0.054937         1.4949 
 136   0.0000       0.062242         1.6937 
 137   0.0000       0.065580         1.7845 
 138   0.0000       0.068946         1.8761 
 139   0.0000       0.069524         1.8919 
 140   0.0000       0.075117         2.0441 
 141   0.0000       0.077302         2.1035 
 142   0.0000       0.082160         2.2357 
 143   0.0000       0.083995         2.2856 
 144   0.0000       0.087727         2.3872 
 145   0.0000       0.091680         2.4947 
 146   0.0000       0.092474         2.5164 
 147   0.0000       0.095543         2.5999 
 148   0.0000       0.096208         2.6180 
 149   0.0000       0.099156         2.6982 
 150   0.0000       0.103270         2.8101 
 151   0.0000       0.104545         2.8448 
 152   0.0000       0.106387         2.8949 
 153   0.0000       0.112194         3.0530 
 154   0.0000       0.115904         3.1539 
 155   0.0000       0.119774         3.2592 
 156   0.0000       0.122305         3.3281 
 157   0.0000       0.127901         3.4804 
 158   0.0000       0.131025         3.5654 
 159   0.0000       0.132154         3.5961 
 160   0.0000       0.133549         3.6340 
 161   0.0000       0.136391         3.7114 
 162   0.0000       0.139766         3.8032 
 163   0.0000       0.144842         3.9414 
 164   0.0000       0.146221         3.9789 
 165   0.0000       0.146926         3.9980 
 166   0.0000       0.151054         4.1104 
 167   0.0000       0.153257         4.1703 
 168   0.0000       0.154699         4.2096 
 169   0.0000       0.157806         4.2941 
 170   0.0000       0.159725         4.3463 
 171   0.0000       0.161034         4.3819 
 172   0.0000       0.162286         4.4160 
 173   0.0000       0.166867         4.5407 
 174   0.0000       0.168938         4.5970 
 175   0.0000       0.172338         4.6896 
 176   0.0000       0.175581         4.7778 
 177   0.0000       0.179197         4.8762 
 178   0.0000       0.184091         5.0094 
 179   0.0000       0.186991         5.0883 
 180   0.0000       0.190039         5.1712 
 181   0.0000       0.192253         5.2315 
 182   0.0000       0.193834         5.2745 
 183   0.0000       0.199489         5.4284 
 184   0.0000       0.202389         5.5073 
 185   0.0000       0.203595         5.5401 
 186   0.0000       0.204682         5.5697 
 187   0.0000       0.206602         5.6219 
 188   0.0000       0.209319         5.6959 
 189   0.0000       0.211626         5.7586 
 190   0.0000       0.217986         5.9317 
 191   0.0000       0.220173         5.9912 
 192   0.0000       0.222052         6.0423 
 193   0.0000       0.225004         6.1227 
 194   0.0000       0.229746         6.2517 
 195   0.0000       0.231280         6.2934 
 196   0.0000       0.235311         6.4031 
 197   0.0000       0.237849         6.4722 
 198   0.0000       0.238014         6.4767 
 199   0.0000       0.242649         6.6028 
 200   0.0000       0.243217         6.6183 
 201   0.0000       0.247989         6.7481 
 202   0.0000       0.248848         6.7715 
 203   0.0000       0.250478         6.8159 
 204   0.0000       0.251853         6.8533 
 205   0.0000       0.255951         6.9648 
 206   0.0000       0.257331         7.0023 
 207   0.0000       0.260590         7.0910 
 208   0.0000       0.261802         7.1240 
 209   0.0000       0.263135         7.1603 
 210   0.0000       0.265322         7.2198 
 211   0.0000       0.269698         7.3389 
 212   0.0000       0.272471         7.4143 
 213   0.0000       0.274365         7.4658 
 214   0.0000       0.275641         7.5006 
 215   0.0000       0.278490         7.5781 
 216   0.0000       0.281247         7.6531 
 217   0.0000       0.285134         7.7589 
 218   0.0000       0.287793         7.8312 
 219   0.0000       0.290150         7.8954 
 220   0.0000       0.291498         7.9321 
 221   0.0000       0.292546         7.9606 
 222   0.0000       0.296377         8.0648 
 223   0.0000       0.297890         8.1060 
 224   0.0000       0.301832         8.2133 
 225   0.0000       0.304366         8.2822 
 226   0.0000       0.307171         8.3585 
 227   0.0000       0.308325         8.3899 
 228   0.0000       0.309713         8.4277 
 229   0.0000       0.313862         8.5406 
 230   0.0000       0.315939         8.5971 
 231   0.0000       0.318062         8.6549 
 232   0.0000       0.320426         8.7192 
 233   0.0000       0.321611         8.7515 
 234   0.0000       0.323970         8.8157 
 235   0.0000       0.325552         8.8587 
 236   0.0000       0.327292         8.9061 
 237   0.0000       0.328189         8.9305 
 238   0.0000       0.329862         8.9760 
 239   0.0000       0.331892         9.0312 
 240   0.0000       0.332670         9.0524 
 241   0.0000       0.337397         9.1810 
 242   0.0000       0.338511         9.2113 
 243   0.0000       0.339249         9.2314 
 244   0.0000       0.339657         9.2425 
 245   0.0000       0.345239         9.3944 
 246   0.0000       0.346128         9.4186 
 247   0.0000       0.346951         9.4410 
 248   0.0000       0.349840         9.5196 
 249   0.0000       0.351306         9.5595 
 250   0.0000       0.354332         9.6419 
 251   0.0000       0.355351         9.6696 
 252   0.0000       0.357943         9.7401 
 253   0.0000       0.359501         9.7825 
 254   0.0000       0.362569         9.8660 
 255   0.0000       0.365157         9.9364 
 256   0.0000       0.365514         9.9461 
 257   0.0000       0.369092        10.0435 
 258   0.0000       0.370939        10.0938 
 259   0.0000       0.375160        10.2086 
 260   0.0000       0.376445        10.2436 
 261   0.0000       0.378423        10.2974 
 262   0.0000       0.382191        10.3999 
 263   0.0000       0.386516        10.5176 
 264   0.0000       0.387537        10.5454 
 265   0.0000       0.389181        10.5902 
 266   0.0000       0.390939        10.6380 
 267   0.0000       0.395367        10.7585 
 268   0.0000       0.400529        10.8990 
 269   0.0000       0.402641        10.9564 
 270   0.0000       0.405909        11.0453 
 271   0.0000       0.408053        11.1037 
 272   0.0000       0.412293        11.2191 
 273   0.0000       0.414969        11.2919 
 274   0.0000       0.417706        11.3664 
 275   0.0000       0.422446        11.4953 
 276   0.0000       0.425235        11.5712 
 277   0.0000       0.427237        11.6257 
 278   0.0000       0.429370        11.6837 
 279   0.0000       0.433908        11.8072 
 280   0.0000       0.436544        11.8790 
 281   0.0000       0.441070        12.0021 
 282   0.0000       0.442589        12.0435 
 283   0.0000       0.448209        12.1964 
 284   0.0000       0.449067        12.2197 
 285   0.0000       0.452347        12.3090 
 286   0.0000       0.456376        12.4186 
 287   0.0000       0.457026        12.4363 
 288   0.0000       0.458819        12.4851 
 289   0.0000       0.462689        12.5904 
 290   0.0000       0.467244        12.7144 
 291   0.0000       0.469695        12.7810 
 292   0.0000       0.470498        12.8029 
 293   0.0000       0.473054        12.8725 
 294   0.0000       0.475371        12.9355 
 295   0.0000       0.477253        12.9867 
 296   0.0000       0.478873        13.0308 
 297   0.0000       0.484880        13.1943 
 298   0.0000       0.487447        13.2641 
 299   0.0000       0.490511        13.3475 
 300   0.0000       0.492045        13.3892 
 301   0.0000       0.494544        13.4572 
 302   0.0000       0.496392        13.5075 
 303   0.0000       0.499755        13.5990 
 304   0.0000       0.502554        13.6752 
 305   0.0000       0.503408        13.6984 
 306   0.0000       0.504901        13.7391 
 307   0.0000       0.509503        13.8643 
 308   0.0000       0.510582        13.8936 
 309   0.0000       0.512881        13.9562 
 310   0.0000       0.514034        13.9876 
 311   0.0000       0.517454        14.0806 
 312   0.0000       0.519175        14.1275 
 313   0.0000       0.522434        14.2162 
 314   0.0000       0.526492        14.3266 
 315   0.0000       0.529497        14.4084 
 316   0.0000       0.532732        14.4964 
 317   0.0000       0.534425        14.5424 
 318   0.0000       0.538355        14.6494 
 319   0.0000       0.540648        14.7118 
 320   0.0000       0.543471        14.7886 
 321   0.0000       0.544624        14.8200 
 322   0.0000       0.547789        14.9061 
 323   0.0000       0.554398        15.0859 
 324   0.0000       0.555242        15.1089 
 325   0.0000       0.559926        15.2364 
 326   0.0000       0.560589        15.2544 
 327   0.0000       0.565213        15.3802 
 328   0.0000       0.567588        15.4449 
 329   0.0000       0.573056        15.5936 
 330   0.0000       0.575348        15.6560 
 331   0.0000       0.576821        15.6961 
 332   0.0000       0.582478        15.8500 
 333   0.0000       0.582772        15.8580 
 334   0.0000       0.587242        15.9797 
 335   0.0000       0.588199        16.0057 
 336   0.0000       0.592658        16.1271 
 337   0.0000       0.596030        16.2188 
 338   0.0000       0.599950        16.3255 
 339   0.0000       0.601816        16.3763 
 340   0.0000       0.603010        16.4087 
 341   0.0000       0.604297        16.4438 
 342   0.0000       0.608795        16.5662 
 343   0.0000       0.613258        16.6876 
 344   0.0000       0.616026        16.7629 
 345   0.0000       0.621921        16.9233 
 346   0.0000       0.625142        17.0110 
 347   0.0000       0.626370        17.0444 
 348   0.0000       0.630351        17.1527 
 349   0.0000       0.631466        17.1831 
 350   0.0000       0.634970        17.2784 
 351   0.0000       0.639300        17.3962 
 352   0.0000       0.643000        17.4969 
 353   0.0000       0.647406        17.6168 
 354   0.0000       0.649935        17.6856 
 355   0.0000       0.652649        17.7595 
 356   0.0000       0.655236        17.8299 
 357   0.0000       0.656572        17.8662 
 358   0.0000       0.658340        17.9143 
 359   0.0000       0.662683        18.0325 
 360   0.0000       0.664587        18.0843 
 361   0.0000       0.669667        18.2226 
 362   0.0000       0.676072        18.3969 
 363   0.0000       0.678870        18.4730 
 364   0.0000       0.680570        18.5193 
 365   0.0000       0.682709        18.5775 
 366   0.0000       0.685630        18.6569 
 367   0.0000       0.688395        18.7322 
 368   0.0000       0.689487        18.7619 
 369   0.0000       0.693696        18.8764 
 370   0.0000       0.698281        19.0012 
 371   0.0000       0.699936        19.0462 
 372   0.0000       0.705516        19.1981 
 373   0.0000       0.706434        19.2230 
 374   0.0000       0.708985        19.2925 
 375   0.0000       0.711570        19.3628 
 376   0.0000       0.712370        19.3846 
 377   0.0000       0.716266        19.4906 
 378   0.0000       0.717276        19.5181 
 379   0.0000       0.718338        19.5470 
 380   0.0000       0.722234        19.6530 
 381   0.0000       0.722760        19.6673 
 382   0.0000       0.727048        19.7840 
 383   0.0000       0.731777        19.9127 
 384   0.0000       0.734160        19.9775 
 385   0.0000       0.737430        20.0665 
 386   0.0000       0.739448        20.1214 
 387   0.0000       0.743718        20.2376 
 388   0.0000       0.745338        20.2817 
 389   0.0000       0.747846        20.3499 
 390   0.0000       0.749429        20.3930 
 391   0.0000       0.752971        20.4894 
 392   0.0000       0.755648        20.5622 
 393   0.0000       0.762871        20.7588 
 394   0.0000       0.765516        20.8308 
 395   0.0000       0.766811        20.8660 
 396   0.0000       0.771126        20.9834 
 397   0.0000       0.772388        21.0177 
 398   0.0000       0.775269        21.0961 
 399   0.0000       0.777062        21.1449 
 400   0.0000       0.779826        21.2202 
 401   0.0000       0.782738        21.2994 
 402   0.0000       0.785866        21.3845 
 403   0.0000       0.791555        21.5393 
 404   0.0000       0.792182        21.5564 
 405   0.0000       0.796342        21.6696 
 406   0.0000       0.798060        21.7163 
 407   0.0000       0.803603        21.8671 
 408   0.0000       0.804561        21.8932 
 409   0.0000       0.807604        21.9760 
 410   0.0000       0.809415        22.0253 
 411   0.0000       0.814311        22.1585 
 412   0.0000       0.818102        22.2617 
 413   0.0000       0.821334        22.3496 
 414   0.0000       0.822309        22.3762 
 415   0.0000       0.825701        22.4685 
 416   0.0000       0.828425        22.5426 
 417   0.0000       0.829569        22.5737 
 418   0.0000       0.832158        22.6442 
 419   0.0000       0.833831        22.6897 
 420   0.0000       0.836889        22.7729 
 421   0.0000       0.838516        22.8172 
 422   0.0000       0.842539        22.9267 
 423   0.0000       0.845551        23.0086 
 424   0.0000       0.847456        23.0605 
 425   0.0000       0.848535        23.0898 
 426   0.0000       0.852131        23.1877 
 427   0.0000       0.852410        23.1953 
 428   0.0000       0.853776        23.2324 
 429   0.0000       0.855146        23.2697 
 430   0.0000       0.858368        23.3574 
 431   0.0000       0.860981        23.4285 
 432   0.0000       0.863357        23.4931 
 433   0.0000       0.866136        23.5688 
 434   0.0000       0.867924        23.6174 
 435   0.0000       0.871011        23.7014 
 436   0.0000       0.872998        23.7555 
 437   0.0000       0.883646        24.0452 
 438   0.0000       0.884623        24.0718 
 439   0.0000       0.891345        24.2547 
 440   0.0000       0.894947        24.3527 
 441   0.0000       0.896297        24.3895 
 442   0.0000       0.898169        24.4404 
 443   0.0000       0.902572        24.5602 
 444   0.0000       0.904913        24.6239 
 445   0.0000       0.905380        24.6366 
 446   0.0000       0.906644        24.6710 
 447   0.0000       0.911699        24.8086 
 448   0.0000       0.914708        24.8905 
 449   0.0000       0.917530        24.9673 
 450   0.0000       0.918661        24.9980 
 451   0.0000       0.921198        25.0671 
 452   0.0000       0.922479        25.1019 
 453   0.0000       0.928023        25.2528 
 454   0.0000       0.933694        25.4071 
 455   0.0000       0.935495        25.4561 
 456   0.0000       0.937616        25.5138 
 457   0.0000       0.939620        25.5684 
 458   0.0000       0.940489        25.5920 
 459   0.0000       0.944737        25.7076 
 460   0.0000       0.947299        25.7773 
 461   0.0000       0.948341        25.8057 
 462   0.0000       0.952651        25.9229 
 463   0.0000       0.954847        25.9827 
 464   0.0000       0.958393        26.0792 
 465   0.0000       0.959279        26.1033 
 466   0.0000       0.961244        26.1568 
 467   0.0000       0.965517        26.2730 
 468   0.0000       0.965848        26.2821 
 469   0.0000       0.969106        26.3707 
 470   0.0000       0.976001        26.5583 
 471   0.0000       0.977813        26.6076 
 472   0.0000       0.979399        26.6508 
 473   0.0000       0.982500        26.7352 
 474   0.0000       0.987848        26.8807 
 475   0.0000       0.991501        26.9801 
 476   0.0000       0.992160        26.9980 
 477   0.0000       0.993467        27.0336 
 478   0.0000       0.996981        27.1292 
 479   0.0000       1.000394        27.2221 
 480   0.0000       1.002689        27.2846 
 481   0.0000       1.004212        27.3260 
 482   0.0000       1.006297        27.3827 
 483   0.0000       1.007925        27.4270 
 484   0.0000       1.010062        27.4852 
 485   0.0000       1.013700        27.5842 
 486   0.0000       1.015222        27.6256 
 487   0.0000       1.017694        27.6929 
 488   0.0000       1.018228        27.7074 
 489   0.0000       1.021838        27.8056 
 490   0.0000       1.024418        27.8758 
 491   0.0000       1.028249        27.9801 
 492   0.0000       1.028401        27.9842 
 493   0.0000       1.029821        28.0229 
 494   0.0000       1.036139        28.1948 
 495   0.0000       1.039077        28.2747 
 496   0.0000       1.042345        28.3636 
 497   0.0000       1.045890        28.4601 
 498   0.0000       1.052673        28.6447 
 499   0.0000       1.053055        28.6551 
 500   0.0000       1.055584        28.7239 
 501   0.0000       1.060793        28.8656 
 502   0.0000       1.062551        28.9135 
 503   0.0000       1.064861        28.9763 
 504   0.0000       1.065887        29.0043 
 505   0.0000       1.067929        29.0598 
 506   0.0000       1.069516        29.1030 
 507   0.0000       1.070540        29.1309 
 508   0.0000       1.072532        29.1851 
 509   0.0000       1.076590        29.2955 
 510   0.0000       1.081639        29.4329 
 511   0.0000       1.082335        29.4518 
 512   0.0000       1.083485        29.4831 
 513   0.0000       1.088751        29.6264 
 514   0.0000       1.090878        29.6843 
 515   0.0000       1.095609        29.8130 
 516   0.0000       1.099129        29.9088 
 517   0.0000       1.100405        29.9435 
 518   0.0000       1.102142        29.9908 
 519   0.0000       1.104878        30.0653 
 520   0.0000       1.108464        30.1628 
 521   0.0000       1.112354        30.2687 
 522   0.0000       1.113467        30.2990 
 523   0.0000       1.114542        30.3282 
 524   0.0000       1.119363        30.4594 
 525   0.0000       1.124380        30.5959 
 526   0.0000       1.127731        30.6871 
 527   0.0000       1.130796        30.7705 
 528   0.0000       1.135756        30.9055 
 529   0.0000       1.138481        30.9796 
 530   0.0000       1.141763        31.0690 
 531   0.0000       1.143029        31.1034 
 532   0.0000       1.149591        31.2820 
 533   0.0000       1.151697        31.3393 
 534   0.0000       1.154953        31.4279 
 535   0.0000       1.158760        31.5315 
 536   0.0000       1.160082        31.5674 
 537   0.0000       1.163024        31.6475 
 538   0.0000       1.165211        31.7070 
 539   0.0000       1.167104        31.7585 
 540   0.0000       1.170604        31.8538 
 541   0.0000       1.174630        31.9633 
 542   0.0000       1.176650        32.0183 
 543   0.0000       1.179639        32.0996 
 544   0.0000       1.181882        32.1607 
 545   0.0000       1.185693        32.2644 
 546   0.0000       1.188768        32.3480 
 547   0.0000       1.194078        32.4925 
 548   0.0000       1.196031        32.5457 
 549   0.0000       1.201605        32.6973 
 550   0.0000       1.204779        32.7837 
 551   0.0000       1.206673        32.8352 
 552   0.0000       1.209972        32.9250 
 553   0.0000       1.217161        33.1206 
 554   0.0000       1.218764        33.1643 
 555   0.0000       1.225047        33.3352 
 556   0.0000       1.233970        33.5780 
 557   0.0000       1.236818        33.6555 
 558   0.0000       1.238001        33.6877 
 559   0.0000       1.246432        33.9171 
 560   0.0000       1.249336        33.9962 
 561   0.0000       1.254772        34.1441 
 562   0.0000       1.259781        34.2804 
 563   0.0000       1.263087        34.3704 
 564   0.0000       1.265563        34.4377 
 565   0.0000       1.270974        34.5850 
 566   0.0000       1.274586        34.6833 
 567   0.0000       1.279087        34.8057 
 568   0.0000       1.280471        34.8434 
 569   0.0000       1.283803        34.9341 
 570   0.0000       1.289388        35.0860 
 571   0.0000       1.294795        35.2332 
 572   0.0000       1.298768        35.3413 
 573   0.0000       1.302145        35.4332 
 574   0.0000       1.310361        35.6567 
 575   0.0000       1.311116        35.6773 
 576   0.0000       1.315148        35.7870 
 577   0.0000       1.316673        35.8285 
 578   0.0000       1.322343        35.9828 
 579   0.0000       1.323825        36.0231 
 580   0.0000       1.330873        36.2149 
 581   0.0000       1.332688        36.2643 
 582   0.0000       1.335932        36.3526 
 583   0.0000       1.340829        36.4858 
 584   0.0000       1.345990        36.6262 
 585   0.0000       1.346577        36.6422 
 586   0.0000       1.352502        36.8035 
 587   0.0000       1.355822        36.8938 
 588   0.0000       1.356969        36.9250 
 589   0.0000       1.358823        36.9755 
 590   0.0000       1.365638        37.1609 
 591   0.0000       1.372192        37.3392 
 592   0.0000       1.374496        37.4019 
 593   0.0000       1.375502        37.4293 
 594   0.0000       1.378442        37.5093 
 595   0.0000       1.380122        37.5550 
 596   0.0000       1.383438        37.6453 
 597   0.0000       1.388599        37.7857 
 598   0.0000       1.393575        37.9211 
 599   0.0000       1.397958        38.0404 
 600   0.0000       1.403982        38.2043 
 601   0.0000       1.409459        38.3533 
 602   0.0000       1.411110        38.3983 
 603   0.0000       1.412277        38.4300 
 604   0.0000       1.419733        38.6329 
 605   0.0000       1.422695        38.7135 
 606   0.0000       1.431167        38.9440 
 607   0.0000       1.433757        39.0145 
 608   0.0000       1.436739        39.0957 
 609   0.0000       1.442768        39.2597 
 610   0.0000       1.444655        39.3111 
 611   0.0000       1.449105        39.4321 
 612   0.0000       1.453556        39.5533 
 613   0.0000       1.455092        39.5951 
 614   0.0000       1.458242        39.6808 
 615   0.0000       1.466276        39.8994 
 616   0.0000       1.470778        40.0219 
 617   0.0000       1.472303        40.0634 
 618   0.0000       1.473641        40.0998 
 619   0.0000       1.480299        40.2810 
 620   0.0000       1.480560        40.2881 
 621   0.0000       1.483712        40.3739 
 622   0.0000       1.487712        40.4827 
 623   0.0000       1.490344        40.5543 
 624   0.0000       1.494311        40.6623 
[...]
      dx2y2   :     0.095024
      dxy     :     0.105691
      f0      :     0.068679  f :     0.245948
      f+1     :     0.044286
      f-1     :     0.028658
      f+2     :     0.039457
      f-2     :     0.040095
      f+3     :     0.012033
      f-3     :     0.012738
      g0      :     0.004725  g :     0.028073
      g+1     :     0.006329
      g-1     :     0.002685
      g+2     :     0.003709
      g-2     :     0.003612
      g+3     :     0.002218
      g-3     :     0.002062
      g+4     :     0.001289
      g-4     :     0.001446
 46 H s       :     0.777336  s :     0.777336
      pz      :     0.085565  p :     0.192538
      px      :     0.055268
      py      :     0.051705
      dz2     :     0.021320  d :     0.066167
      dxz     :     0.018982
      dyz     :     0.017390
      dx2y2   :     0.004529
      dxy     :     0.003946
      f0      :     0.003096  f :     0.009662
      f+1     :     0.002326
      f-1     :     0.001819
      f+2     :     0.001151
      f-2     :     0.001068
      f+3     :     0.000108
      f-3     :     0.000096
 47 H s       :     0.779729  s :     0.779729
      pz      :     0.076975  p :     0.195875
      px      :     0.063807
      py      :     0.055093
      dz2     :     0.021277  d :     0.065810
      dxz     :     0.015564
      dyz     :     0.014053
      dx2y2   :     0.007246
      dxy     :     0.007669
      f0      :     0.002609  f :     0.009649
      f+1     :     0.002259
      f-1     :     0.001011
      f+2     :     0.001517
      f-2     :     0.001609
      f+3     :     0.000324
      f-3     :     0.000321
 48 H s       :     0.788554  s :     0.788554
      pz      :     0.084686  p :     0.188037
      px      :     0.051003
      py      :     0.052348
      dz2     :     0.020774  d :     0.064096
      dxz     :     0.018648
      dyz     :     0.016464
      dx2y2   :     0.004220
      dxy     :     0.003990
      f0      :     0.003086  f :     0.009489
      f+1     :     0.002315
      f-1     :     0.001711
      f+2     :     0.001126
      f-2     :     0.001043
      f+3     :     0.000106
      f-3     :     0.000103
 49 H s       :     0.779757  s :     0.779757
      pz      :     0.045875  p :     0.198834
      px      :     0.094799
      py      :     0.058160
      dz2     :     0.006081  d :     0.066113
      dxz     :     0.023695
      dyz     :     0.001573
      dx2y2   :     0.014945
      dxy     :     0.019819
      f0      :     0.001278  f :     0.009688
      f+1     :     0.001420
      f-1     :     0.000210
      f+2     :     0.001974
      f-2     :     0.000430
      f+3     :     0.001986
      f-3     :     0.002390
 50 O s       :     3.083965  s :     3.083965
      pz      :     1.423316  p :     4.205362
      px      :     1.257921
      py      :     1.524125
      dz2     :     0.038756  d :     0.183995
      dxz     :     0.059598
      dyz     :     0.019790
      dx2y2   :     0.032850
      dxy     :     0.033002
      f0      :     0.007384  f :     0.027903
      f+1     :     0.003737
      f-1     :     0.002456
      f+2     :     0.004691
      f-2     :     0.002986
      f+3     :     0.002790
      f-3     :     0.003859
      g0      :     0.000126  g :     0.000960
      g+1     :     0.000147
      g-1     :     0.000043
      g+2     :     0.000109
      g-2     :     0.000121
      g+3     :     0.000122
      g-3     :     0.000069
      g+4     :     0.000112
      g-4     :     0.000111
 51 C s       :     2.574190  s :     2.574190
      pz      :     0.985964  p :     2.672508
      px      :     0.714006
      py      :     0.972538
      dz2     :     0.082310  d :     0.517830
      dxz     :     0.118510
      dyz     :     0.058721
      dx2y2   :     0.133051
      dxy     :     0.125239
      f0      :     0.021267  f :     0.146409
      f+1     :     0.018605
      f-1     :     0.004015
      f+2     :     0.024482
      f-2     :     0.009434
      f+3     :     0.030026
      f-3     :     0.038580
      g0      :     0.000670  g :     0.013659
      g+1     :     0.002434
      g-1     :     0.000178
      g+2     :     0.001240
      g-2     :     0.000670
      g+3     :     0.001518
      g-3     :     0.000547
      g+4     :     0.003032
      g-4     :     0.003370
 52 H s       :     0.802374  s :     0.802374
      pz      :     0.067429  p :     0.185809
      px      :     0.044688
      py      :     0.073693
      dz2     :     0.017989  d :     0.064149
      dxz     :     0.007959
      dyz     :     0.012051
      dx2y2   :     0.015470
      dxy     :     0.010680
      f0      :     0.000824  f :     0.008889
      f+1     :     0.000719
      f-1     :     0.002271
      f+2     :     0.001146
      f-2     :     0.001542
      f+3     :     0.001090
      f-3     :     0.001297
 53 H s       :     0.802199  s :     0.802199
      pz      :     0.089824  p :     0.186495
      px      :     0.042039
      py      :     0.054632
      dz2     :     0.018340  d :     0.065038
      dxz     :     0.016147
      dyz     :     0.024297
      dx2y2   :     0.003938
      dxy     :     0.002316
      f0      :     0.002313  f :     0.009177
      f+1     :     0.002189
      f-1     :     0.002822
      f+2     :     0.001013
      f-2     :     0.000718
      f+3     :     0.000087
      f-3     :     0.000036
 54 H s       :     0.802529  s :     0.802529
      pz      :     0.062034  p :     0.185791
      px      :     0.036028
      py      :     0.087730
      dz2     :     0.013571  d :     0.064095
      dxz     :     0.003304
      dyz     :     0.018237
      dx2y2   :     0.014484
      dxy     :     0.014499
      f0      :     0.000609  f :     0.008882
      f+1     :     0.000079
      f-1     :     0.002746
      f+2     :     0.001476
      f-2     :     0.000910
      f+3     :     0.001474
      f-3     :     0.001589
 55 H s       :     0.778888  s :     0.778888
      pz      :     0.059219  p :     0.188694
      px      :     0.058631
      py      :     0.070844
      dz2     :     0.014582  d :     0.065238
      dxz     :     0.009388
      dyz     :     0.013534
      dx2y2   :     0.015353
      dxy     :     0.012382
      f0      :     0.000757  f :     0.009569
      f+1     :     0.000843
      f-1     :     0.002138
      f+2     :     0.001654
      f-2     :     0.001624
      f+3     :     0.001094
      f-3     :     0.001459
 56 H s       :     0.781028  s :     0.781028
      pz      :     0.083222  p :     0.190033
      px      :     0.058194
      py      :     0.048617
      dz2     :     0.018999  d :     0.064763
      dxz     :     0.015645
      dyz     :     0.017734
      dx2y2   :     0.006309
      dxy     :     0.006075
      f0      :     0.002250  f :     0.009535
      f+1     :     0.001921
      f-1     :     0.001768
      f+2     :     0.001560
      f-2     :     0.001570
      f+3     :     0.000252
      f-3     :     0.000213
 57 H s       :     0.778286  s :     0.778286
      pz      :     0.084028  p :     0.190602
      px      :     0.060631
      py      :     0.045943
      dz2     :     0.019358  d :     0.065124
      dxz     :     0.015939
      dyz     :     0.018038
      dx2y2   :     0.005793
      dxy     :     0.005995
      f0      :     0.002373  f :     0.009555
      f+1     :     0.001897
      f-1     :     0.001799
      f+2     :     0.001516
      f-2     :     0.001540
      f+3     :     0.000234
      f-3     :     0.000197
 58 H s       :     0.782611  s :     0.782611
      pz      :     0.060138  p :     0.192640
      px      :     0.057468
      py      :     0.075035
      dz2     :     0.014648  d :     0.065334
      dxz     :     0.009414
      dyz     :     0.013719
      dx2y2   :     0.015317
      dxy     :     0.012236
      f0      :     0.000778  f :     0.009571
      f+1     :     0.000863
      f-1     :     0.002120
      f+2     :     0.001649
      f-2     :     0.001641
      f+3     :     0.001096
      f-3     :     0.001423


                      *****************************
                      * MAYER POPULATION ANALYSIS *
                      *****************************

  NA   - Mulliken gross atomic population
  ZA   - Total nuclear charge
  QA   - Mulliken gross atomic charge
  VA   - Mayer's total valence
  BVA  - Mayer's bonded valence
  FA   - Mayer's free valence

  ATOM       NA         ZA         QA         VA         BVA        FA
  0 C      5.8914     6.0000     0.1086     3.9463     3.9463     0.0000
  1 C      6.0924     6.0000    -0.0924     3.7902     3.7902     0.0000
  2 C      6.1846     6.0000    -0.1846     3.9066     3.9066     0.0000
  3 C      6.0813     6.0000    -0.0813     3.7945     3.7945    -0.0000
  4 C      5.9299     6.0000     0.0701     3.5953     3.5953     0.0000
  5 C      6.0473     6.0000    -0.0473     3.6906     3.6906     0.0000
  6 O      8.3681     8.0000    -0.3681     2.0856     2.0856    -0.0000
  7 C      6.0820     6.0000    -0.0820     3.8144     3.8144    -0.0000
  8 H      0.8905     1.0000     0.1095     0.9837     0.9837    -0.0000
  9 H      0.8671     1.0000     0.1329     0.9812     0.9812    -0.0000
 10 H      0.8905     1.0000     0.1095     0.9829     0.9829    -0.0000
 11 C      5.8404     6.0000     0.1596     4.0031     4.0031    -0.0000
 12 C      6.1950     6.0000    -0.1950     3.8892     3.8892    -0.0000
 13 C      6.0627     6.0000    -0.0627     3.9342     3.9342     0.0000
 14 H      0.8794     1.0000     0.1206     0.9637     0.9637    -0.0000
 15 H      0.8806     1.0000     0.1194     0.9996     0.9996     0.0000
 16 H      0.8828     1.0000     0.1172     1.0150     1.0150     0.0000
 17 H      0.8807     1.0000     0.1193     0.9959     0.9959     0.0000
 18 H      0.8639     1.0000     0.1361     0.9791     0.9791    -0.0000
 19 H      0.9066     1.0000     0.0934     1.0011     1.0011    -0.0000
 20 C      5.7916     6.0000     0.2084     3.6392     3.6392     0.0000
 21 O      8.3860     8.0000    -0.3860     2.0713     2.0713    -0.0000
 22 C      6.0866     6.0000    -0.0866     3.8086     3.8086     0.0000
 23 H      0.9353     1.0000     0.0647     1.0129     1.0129    -0.0000
 24 C      5.8264     6.0000     0.1736     3.9211     3.9211     0.0000
 25 H      0.8700     1.0000     0.1300     0.9858     0.9858     0.0000
 26 H      0.9134     1.0000     0.0866     0.9893     0.9893    -0.0000
 27 C      6.1456     6.0000    -0.1456     3.8264     3.8264    -0.0000
 28 C      6.1539     6.0000    -0.1539     3.7622     3.7622    -0.0000
 29 C      6.1048     6.0000    -0.1048     3.7650     3.7650     0.0000
 30 C      5.9849     6.0000     0.0151     3.7063     3.7063    -0.0000
 31 C      6.1087     6.0000    -0.1087     3.7832     3.7832    -0.0000
 32 C      5.6400     6.0000     0.3600     4.1558     4.1558    -0.0000
 33 O      8.4318     8.0000    -0.4318     2.1005     2.1005    -0.0000
 34 O      8.3532     8.0000    -0.3532     2.1478     2.1478     0.0000
 35 C      6.0854     6.0000    -0.0854     3.8010     3.8010     0.0000
 36 H      0.8760     1.0000     0.1240     0.9846     0.9846    -0.0000
 37 H      0.8740     1.0000     0.1260     0.9861     0.9861     0.0000
 38 H      0.8742     1.0000     0.1258     0.9859     0.9859     0.0000
 39 C      5.9347     6.0000     0.0653     3.6881     3.6881     0.0000
 40 O      8.3984     8.0000    -0.3984     2.0685     2.0685     0.0000
 41 C      6.1071     6.0000    -0.1071     3.8139     3.8139    -0.0000
 42 C      6.0607     6.0000    -0.0607     3.7090     3.7090     0.0000
 43 C      6.2025     6.0000    -0.2025     3.9108     3.9108     0.0000
 44 C      6.0830     6.0000    -0.0830     3.7804     3.7804     0.0000
 45 C      5.8948     6.0000     0.1052     3.9607     3.9607     0.0000
 46 H      0.8847     1.0000     0.1153     1.0163     1.0163     0.0000
 47 H      0.8863     1.0000     0.1137     0.9992     0.9992    -0.0000
 48 H      0.8688     1.0000     0.1312     0.9813     0.9813     0.0000
 49 H      0.8799     1.0000     0.1201     0.9981     0.9981     0.0000
 50 O      8.3680     8.0000    -0.3680     2.0826     2.0826     0.0000
 51 C      6.0838     6.0000    -0.0838     3.8147     3.8147     0.0000
 52 H      0.8891     1.0000     0.1109     0.9831     0.9831    -0.0000
 53 H      0.8682     1.0000     0.1318     0.9812     0.9812    -0.0000
 54 H      0.8892     1.0000     0.1108     0.9828     0.9828     0.0000
 55 H      0.8848     1.0000     0.1152     0.9902     0.9902     0.0000
 56 H      0.8737     1.0000     0.1263     0.9959     0.9959     0.0000
 57 H      0.9074     1.0000     0.0926     0.9903     0.9903    -0.0000
 58 H      0.8763     1.0000     0.1237     0.9935     0.9935    -0.0000

  Mayer bond orders larger than 0.100000
B(  0-C ,  1-C ) :   1.3332 B(  0-C ,  5-C ) :   1.3187 B(  0-C ,  6-O ) :   1.1316 
B(  1-C ,  2-C ) :   1.3579 B(  1-C , 17-H ) :   0.9512 B(  2-C ,  3-C ) :   1.4204 
B(  2-C , 18-H ) :   0.9506 B(  3-C ,  4-C ) :   1.2541 B(  3-C , 19-H ) :   0.9491 
B(  4-C ,  5-C ) :   1.3004 B(  4-C , 11-C ) :   0.9667 B(  5-C , 16-H ) :   0.9424 
B(  6-O ,  7-C ) :   0.8995 B(  7-C ,  8-H ) :   0.9602 B(  7-C ,  9-H ) :   0.9681 
B(  7-C , 10-H ) :   0.9610 B( 11-C , 12-C ) :   0.9983 B( 11-C , 21-O ) :   1.9980 
B( 12-C , 13-C ) :   1.0160 B( 12-C , 14-H ) :   0.9196 B( 12-C , 15-H ) :   0.9298 
B( 13-C , 20-C ) :   0.8711 B( 13-C , 22-C ) :   0.9550 B( 13-C , 23-H ) :   0.9355 
B( 20-C , 27-C ) :   1.3206 B( 20-C , 28-C ) :   1.2662 B( 22-C , 24-C ) :   0.9710 
B( 22-C , 25-H ) :   0.9205 B( 22-C , 26-H ) :   0.9207 B( 24-C , 39-C ) :   1.0173 
B( 24-C , 40-O ) :   1.8873 B( 27-C , 31-C ) :   1.3758 B( 27-C , 57-H ) :   0.9599 
B( 28-C , 29-C ) :   1.3694 B( 28-C , 55-H ) :   0.9554 B( 29-C , 30-C ) :   1.2963 
B( 29-C , 56-H ) :   0.9445 B( 30-C , 31-C ) :   1.2989 B( 30-C , 32-C ) :   1.0378 
B( 31-C , 58-H ) :   0.9479 B( 32-C , 33-O ) :   1.8935 B( 32-C , 34-O ) :   1.1950 
B( 34-O , 35-C ) :   0.8532 B( 35-C , 36-H ) :   0.9630 B( 35-C , 37-H ) :   0.9629 
B( 35-C , 38-H ) :   0.9633 B( 39-C , 41-C ) :   1.2858 B( 39-C , 42-C ) :   1.3040 
B( 41-C , 43-C ) :   1.4162 B( 41-C , 47-H ) :   0.9533 B( 42-C , 45-C ) :   1.3356 
B( 42-C , 46-H ) :   0.9388 B( 43-C , 44-C ) :   1.3597 B( 43-C , 48-H ) :   0.9496 
B( 44-C , 45-C ) :   1.3256 B( 44-C , 49-H ) :   0.9515 B( 45-C , 50-O ) :   1.1344 
B( 50-O , 51-C ) :   0.8983 B( 51-C , 52-H ) :   0.9596 B( 51-C , 53-H ) :   0.9676 
B( 51-C , 54-H ) :   0.9602 

-------
TIMINGS
-------

Total SCF time: 0 days 2 hours 21 min 48 sec 

Total time                  ....    8508.321 sec
Sum of individual times     ....    8461.755 sec  ( 99.5%)

Fock matrix formation       ....    8233.324 sec  ( 96.8%)
  XC integration            ....     501.039 sec  (  6.1% of F)
    Basis function eval.    ....      35.808 sec  (  7.1% of XC)
    Density eval.           ....     240.197 sec  ( 47.9% of XC)
    XC-Functional eval.     ....       3.951 sec  (  0.8% of XC)
    XC-Potential eval.      ....     192.601 sec  ( 38.4% of XC)
Diagonalization             ....      69.688 sec  (  0.8%)
Density matrix formation    ....       5.005 sec  (  0.1%)
Population analysis         ....      16.319 sec  (  0.2%)
Initial guess               ....      24.835 sec  (  0.3%)
Orbital Transformation      ....       0.000 sec  (  0.0%)
Orbital Orthonormalization  ....       0.000 sec  (  0.0%)
DIIS solution               ....      39.090 sec  (  0.5%)
SOSCF solution              ....      50.636 sec  (  0.6%)
Grid generation             ....      22.857 sec  (  0.3%)

Maximum memory used throughout the entire SCF-calculation: 1637.3 MB


-------------------------------------------------------------------------------
                          DFT DISPERSION CORRECTION                            
                                                                               
                              DFTD3 V3.1  Rev 1                                
                          USING Becke-Johnson damping                          
-------------------------------------------------------------------------------
The PW6B95 functional is recognized
Active option DFTDOPT                   ...         4   

molecular C6(AA) [au] = 38613.069644 


            DFT-D V3
 parameters
 s6 scaling factor         :     1.0000 
 a1 scaling factor         :     0.2076 
 s8 scaling factor         :     0.7257 
 a2 scaling factor         :     6.3750 
 ad hoc parameters k1-k3   :    16.0000     1.3333    -4.0000 

 Edisp/kcal,au: -26.124371088994  -0.041631830884 
 E6   /kcal   : -20.028315993 
 E8   /kcal   :  -6.096055096 
 % E8         :  23.334743926 

-------------------------   ----------------
Dispersion correction           -0.041631831
-------------------------   ----------------


-------------------------   --------------------
FINAL SINGLE POINT ENERGY     -1498.467649368188
-------------------------   --------------------


                            ***************************************
                            *     ORCA property calculations      *
                            ***************************************

                                    ---------------------
                                    Active property flags
                                    ---------------------
   (+) Dipole Moment


------------------------------------------------------------------------------
                       ORCA ELECTRIC PROPERTIES CALCULATION
------------------------------------------------------------------------------

Dipole Moment Calculation                       ... on
Quadrupole Moment Calculation                   ... off
Polarizability Calculation                      ... off
GBWName                                         ... Diketon_sp.gbw
Electron density                                ... Diketon_sp.scfp
The origin for moment calculation is the CENTER OF MASS  = ( 2.432348,  6.956930  0.191021)

-------------
DIPOLE MOMENT
-------------
                                X             Y             Z
Electronic contribution:     -3.48785       2.83382       1.77550
Nuclear contribution   :      5.41465      -5.26932      -0.98022
                        -----------------------------------------
Total Dipole Moment    :      1.92679      -2.43551       0.79528
                        -----------------------------------------
Magnitude (a.u.)       :      3.20573
Magnitude (Debye)      :      8.14832



--------------------
Rotational spectrum 
--------------------
 
Rotational constants in cm-1:     0.004750     0.002176     0.001717 
Rotational constants in MHz :   142.414677    65.245420    51.466811 

 Dipole components along the rotational axes: 
x,y,z [a.u.] :     2.492437    -1.926657     0.593682 
x,y,z [Debye]:     6.335270    -4.897173     1.509018 

 

Timings for individual modules:

Sum of individual times         ...     8530.836 sec (= 142.181 min)
GTO integral calculation        ...       21.611 sec (=   0.360 min)   0.3 %
SCF iterations                  ...     8509.225 sec (= 141.820 min)  99.7 %
                             ****ORCA TERMINATED NORMALLY****
TOTAL RUN TIME: 0 days 2 hours 22 minutes 21 seconds 47 msec
‘Diketon_freqopt.hess’ -> ‘/home/rothe/Calc/Li_Path/THF/Diketon/Diketon_freqopt.hess’
‘Diketon_freqopt.opt’ -> ‘/home/rothe/Calc/Li_Path/THF/Diketon/Diketon_freqopt.opt’
‘Diketon_sp.cpcm’ -> ‘/home/rothe/Calc/Li_Path/THF/Diketon/Diketon_sp.cpcm’
‘Diketon_sp.densities’ -> ‘/home/rothe/Calc/Li_Path/THF/Diketon/Diketon_sp.densities’
‘Diketon_sp.gbw’ -> ‘/home/rothe/Calc/Li_Path/THF/Diketon/Diketon_sp.gbw’
‘Diketon_sp.job’ -> ‘/home/rothe/Calc/Li_Path/THF/Diketon/Diketon_sp.job’
‘Diketon_sp_property.txt’ -> ‘/home/rothe/Calc/Li_Path/THF/Diketon/Diketon_sp_property.txt’
