! Job execution by suborca V 5.02 !
Job started from clu.thch.uni-bonn.de, running /software/cluster/orca_5_0_2_linux_x86-64_openmpi411/orca from /software/cluster/orca_5_0_2_linux_x86-64_openmpi411 on boar233 in /tmp1/rothe/Aldol_Cry_sp__iBFRdi
Going to copy the following really necessary files:  

                                 *****************
                                 * O   R   C   A *
                                 *****************

                                            #,                                       
                                            ###                                      
                                            ####                                     
                                            #####                                    
                                            ######                                   
                                           ########,                                 
                                     ,,################,,,,,                         
                               ,,#################################,,                 
                          ,,##########################################,,             
                       ,#########################################, ''#####,          
                    ,#############################################,,   '####,        
                  ,##################################################,,,,####,       
                ,###########''''           ''''###############################       
              ,#####''   ,,,,##########,,,,          '''####'''          '####       
            ,##' ,,,,###########################,,,                        '##       
           ' ,,###''''                  '''############,,,                           
         ,,##''                                '''############,,,,        ,,,,,,###''
      ,#''                                            '''#######################'''  
     '                                                          ''''####''''         
             ,#######,   #######,   ,#######,      ##                                
            ,#'     '#,  ##    ##  ,#'     '#,    #''#        ######   ,####,        
            ##       ##  ##   ,#'  ##            #'  '#       #        #'  '#        
            ##       ##  #######   ##           ,######,      #####,   #    #        
            '#,     ,#'  ##    ##  '#,     ,#' ,#      #,         ##   #,  ,#        
             '#######'   ##     ##  '#######'  #'      '#     #####' # '####'        



                  #######################################################
                  #                        -***-                        #
                  #          Department of theory and spectroscopy      #
                  #    Directorship and core code : Frank Neese         #
                  #        Max Planck Institute fuer Kohlenforschung    #
                  #                Kaiser Wilhelm Platz 1               #
                  #                 D-45470 Muelheim/Ruhr               #
                  #                      Germany                        #
                  #                                                     #
                  #                  All rights reserved                #
                  #                        -***-                        #
                  #######################################################


                         Program Version 5.0.2 -  RELEASE  -


 With contributions from (in alphabetic order):
   Daniel Aravena         : Magnetic Suceptibility
   Michael Atanasov       : Ab Initio Ligand Field Theory (pilot matlab implementation)
   Alexander A. Auer      : GIAO ZORA, VPT2 properties, NMR spectrum
   Ute Becker             : Parallelization
   Giovanni Bistoni       : ED, misc. LED, open-shell LED, HFLD
   Martin Brehm           : Molecular dynamics
   Dmytro Bykov           : SCF Hessian
   Vijay G. Chilkuri      : MRCI spin determinant printing, contributions to CSF-ICE
   Dipayan Datta          : RHF DLPNO-CCSD density
   Achintya Kumar Dutta   : EOM-CC, STEOM-CC
   Dmitry Ganyushin       : Spin-Orbit,Spin-Spin,Magnetic field MRCI
   Miquel Garcia          : C-PCM and meta-GGA Hessian, CC/C-PCM, Gaussian charge scheme
   Yang Guo               : DLPNO-NEVPT2, F12-NEVPT2, CIM, IAO-localization
   Andreas Hansen         : Spin unrestricted coupled pair/coupled cluster methods
   Benjamin Helmich-Paris : MC-RPA, TRAH-SCF, COSX integrals
   Lee Huntington         : MR-EOM, pCC
   Robert Izsak           : Overlap fitted RIJCOSX, COSX-SCS-MP3, EOM
   Marcus Kettner         : VPT2
   Christian Kollmar      : KDIIS, OOCD, Brueckner-CCSD(T), CCSD density, CASPT2, CASPT2-K
   Simone Kossmann        : Meta GGA functionals, TD-DFT gradient, OOMP2, MP2 Hessian
   Martin Krupicka        : Initial AUTO-CI
   Lucas Lang             : DCDCAS
   Marvin Lechner         : AUTO-CI (C++ implementation), FIC-MRCC
   Dagmar Lenk            : GEPOL surface, SMD
   Dimitrios Liakos       : Extrapolation schemes; Compound Job, initial MDCI parallelization
   Dimitrios Manganas     : Further ROCIS development; embedding schemes
   Dimitrios Pantazis     : SARC Basis sets
   Anastasios Papadopoulos: AUTO-CI, single reference methods and gradients
   Taras Petrenko         : DFT Hessian,TD-DFT gradient, ASA, ECA, R-Raman, ABS, FL, XAS/XES, NRVS
   Peter Pinski           : DLPNO-MP2, DLPNO-MP2 Gradient
   Christoph Reimann      : Effective Core Potentials
   Marius Retegan         : Local ZFS, SOC
   Christoph Riplinger    : Optimizer, TS searches, QM/MM, DLPNO-CCSD(T), (RO)-DLPNO pert. Triples
   Tobias Risthaus        : Range-separated hybrids, TD-DFT gradient, RPA, STAB
   Michael Roemelt        : Original ROCIS implementation
   Masaaki Saitow         : Open-shell DLPNO-CCSD energy and density
   Barbara Sandhoefer     : DKH picture change effects
   Avijit Sen             : IP-ROCIS
   Kantharuban Sivalingam : CASSCF convergence, NEVPT2, FIC-MRCI
   Bernardo de Souza      : ESD, SOC TD-DFT
   Georgi Stoychev        : AutoAux, RI-MP2 NMR, DLPNO-MP2 response
   Willem Van den Heuvel  : Paramagnetic NMR
   Boris Wezisla          : Elementary symmetry handling
   Frank Wennmohs         : Technical directorship


 We gratefully acknowledge several colleagues who have allowed us to
 interface, adapt or use parts of their codes:
   Stefan Grimme, W. Hujo, H. Kruse, P. Pracht,  : VdW corrections, initial TS optimization,
                  C. Bannwarth, S. Ehlert          DFT functionals, gCP, sTDA/sTD-DF
   Ed Valeev, F. Pavosevic, A. Kumar             : LibInt (2-el integral package), F12 methods
   Garnet Chan, S. Sharma, J. Yang, R. Olivares  : DMRG
   Ulf Ekstrom                                   : XCFun DFT Library
   Mihaly Kallay                                 : mrcc  (arbitrary order and MRCC methods)
   Jiri Pittner, Ondrej Demel                    : Mk-CCSD
   Frank Weinhold                                : gennbo (NPA and NBO analysis)
   Christopher J. Cramer and Donald G. Truhlar   : smd solvation model
   Lars Goerigk                                  : TD-DFT with DH, B97 family of functionals
   V. Asgeirsson, H. Jonsson                     : NEB implementation
   FAccTs GmbH                                   : IRC, NEB, NEB-TS, DLPNO-Multilevel, CI-OPT
                                                   MM, QMMM, 2- and 3-layer-ONIOM, Crystal-QMMM,
                                                   LR-CPCM, SF, NACMEs, symmetry and pop. for TD-DFT,
                                                   nearIR, NL-DFT gradient (VV10), updates on ESD,
                                                   ML-optimized integration grids
   S Lehtola, MJT Oliveira, MAL Marques          : LibXC Library
   Liviu Ungur et al                             : ANISO software


 Your calculation uses the libint2 library for the computation of 2-el integrals
 For citations please refer to: http://libint.valeyev.net

 Your ORCA version has been built with support for libXC version: 5.1.0
 For citations please refer to: https://tddft.org/programs/libxc/

 This ORCA versions uses:
   CBLAS   interface :  Fast vector & matrix operations
   LAPACKE interface :  Fast linear algebra routines
   SCALAPACK package :  Parallel linear algebra routines
   Shared memory     :  Shared parallel matrices
   BLAS/LAPACK       :  OpenBLAS 0.3.15  USE64BITINT DYNAMIC_ARCH NO_AFFINITY Barcelona SINGLE_THREADED
        Core in use  :  Barcelona
   Copyright (c) 2011-2014, The OpenBLAS Project


Your calculation utilizes the atom-pairwise dispersion correction
with the Becke-Johnson damping scheme (D3BJ)
Cite in your paper:
S.Grimme, S.Ehrlich, L.Goerigk, J Comput Chem, (2011), 32, 1456–1465 
S.Grimme, J.Antony, S.Ehrlich and H.Krieg, J.Chem.Phys., 132, (2010), 154104 
   

================================================================================

----- Orbital basis set information -----
Your calculation utilizes the basis: def2-QZVP
   F. Weigend and R. Ahlrichs, Phys. Chem. Chem. Phys. 7, 3297 (2005).

----- AuxJK basis set information -----
Your calculation utilizes the auxiliary basis: def2/JK
   H-Ba, Hf-Rn: F. Weigend, J. Comput. Chem. 29, 167 (2008).

================================================================================
                                        WARNINGS
                       Please study these warnings very carefully!
================================================================================


INFO   : the flag for use of the SHARK integral package has been found!

================================================================================
                                       INPUT FILE
================================================================================
NAME = Aldol_Cry_sp.inp
|  1> ! PW6B95 D3BJ def2-QZVP RIJK def2/JK tightSCF CPCM(THF)
|  2> ! sp Pal8
|  3> 
|  4> * xyz 0 1
|  5>   C   -3.73960343994941      1.38237846571148     -0.01018472137700
|  6>   C   -3.95209423661028     -0.00313059079921      0.00578492594493
|  7>   C   -2.85458844310860     -0.86945742609142      0.11446102819859
|  8>   C   -1.56674406619872     -0.36210891650932      0.20172968567998
|  9>   C   -1.34561631589354      1.02657636454948      0.18143351690064
| 10>   C   -2.44946709383592      1.89065596788692      0.07898368984005
| 11>   H   -2.28511429944432      2.96211842312021      0.06303735342823
| 12>   H   -4.58331696061722      2.05780015512753     -0.09438513038902
| 13>   H   -3.02730999828864     -1.94039134538065      0.13348526254316
| 14>   H   -0.73341988370356     -1.04939524636605      0.29917652949321
| 15>   C   0.01140691174831      1.59303942987179      0.26465334350120
| 16>   C   1.17270399540154      0.84810582366360      0.16111652876659
| 17>   O   0.06727335389756      2.91142218659327      0.43443522114754
| 18>   C   2.45122587348867      1.48723584447787      0.23454680500613
| 19>   C   3.70514246845666      0.69686892479499      0.12040619876873
| 20>   H   1.10632981145425     -0.21599804833338     -0.00804501991343
| 21>   H   1.08921235796429      3.11754161384985      0.44486848805998
| 22>   O   2.53672874730645      2.74930372711446      0.38721625702498
| 23>   C   3.71493319763512     -0.70425006515561      0.16252823407048
| 24>   C   4.91154437668871      1.40426761163298     -0.02221714141498
| 25>   C   6.11650083206667      0.71036785118729     -0.12956399689066
| 26>   C   6.12384180210086     -0.69409757921308     -0.08368910456500
| 27>   H   4.87109969850677      2.48619809669818     -0.04922465471429
| 28>   C   4.92838086475816     -1.38776869073713      0.06468336198413
| 29>   H   7.07129650099187     -1.21856733756440     -0.16557024779180
| 30>   H   4.94207241117256     -2.47300530790467      0.10481269291259
| 31>   H   2.79562479624024     -1.26475803331498      0.28797899692178
| 32>   C   -5.31168766146884     -0.60057590061717     -0.08816491125716
| 33>   O   -5.53833344021548     -1.80189376884201     -0.09248704947887
| 34>   O   -6.28093538413537      0.33590904989840     -0.17090138166119
| 35>   C   -7.63542601699671     -0.18202384619301     -0.27046338152304
| 36>   H   -7.73288443004151     -0.78937627492722     -1.17281371079012
| 37>   H   -8.27043250060244      0.70089234046706     -0.32169617458163
| 38>   H   -7.86706594488960     -0.78303978712140      0.61134767070829
| 39>   O   7.33570346921781      1.30726349231279     -0.28292582445724
| 40>   C   7.36018171979455      2.74589692414692     -0.33699616429973
| 41>   H   8.40886974574329      3.01129027097197     -0.46858431154769
| 42>   H   6.97680490637572      3.17400349198021      0.59583893679118
| 43>   H   6.76919657688978      3.10997426961369     -1.18461185434102
| 44> *
| 45> 
| 46>                          ****END OF INPUT****
================================================================================

                       ****************************
                       * Single Point Calculation *
                       ****************************

---------------------------------
CARTESIAN COORDINATES (ANGSTROEM)
---------------------------------
  C     -3.739603    1.382378   -0.010185
  C     -3.952094   -0.003131    0.005785
  C     -2.854588   -0.869457    0.114461
  C     -1.566744   -0.362109    0.201730
  C     -1.345616    1.026576    0.181434
  C     -2.449467    1.890656    0.078984
  H     -2.285114    2.962118    0.063037
  H     -4.583317    2.057800   -0.094385
  H     -3.027310   -1.940391    0.133485
  H     -0.733420   -1.049395    0.299177
  C      0.011407    1.593039    0.264653
  C      1.172704    0.848106    0.161117
  O      0.067273    2.911422    0.434435
  C      2.451226    1.487236    0.234547
  C      3.705142    0.696869    0.120406
  H      1.106330   -0.215998   -0.008045
  H      1.089212    3.117542    0.444868
  O      2.536729    2.749304    0.387216
  C      3.714933   -0.704250    0.162528
  C      4.911544    1.404268   -0.022217
  C      6.116501    0.710368   -0.129564
  C      6.123842   -0.694098   -0.083689
  H      4.871100    2.486198   -0.049225
  C      4.928381   -1.387769    0.064683
  H      7.071297   -1.218567   -0.165570
  H      4.942072   -2.473005    0.104813
  H      2.795625   -1.264758    0.287979
  C     -5.311688   -0.600576   -0.088165
  O     -5.538333   -1.801894   -0.092487
  O     -6.280935    0.335909   -0.170901
  C     -7.635426   -0.182024   -0.270463
  H     -7.732884   -0.789376   -1.172814
  H     -8.270433    0.700892   -0.321696
  H     -7.867066   -0.783040    0.611348
  O      7.335703    1.307263   -0.282926
  C      7.360182    2.745897   -0.336996
  H      8.408870    3.011290   -0.468584
  H      6.976805    3.174003    0.595839
  H      6.769197    3.109974   -1.184612

----------------------------
CARTESIAN COORDINATES (A.U.)
----------------------------
  NO LB      ZA    FRAG     MASS         X           Y           Z
   0 C     6.0000    0    12.011   -7.066826    2.612317   -0.019246
   1 C     6.0000    0    12.011   -7.468376   -0.005916    0.010932
   2 C     6.0000    0    12.011   -5.394390   -1.643036    0.216300
   3 C     6.0000    0    12.011   -2.960717   -0.684287    0.381214
   4 C     6.0000    0    12.011   -2.542846    1.939948    0.342860
   5 C     6.0000    0    12.011   -4.628822    3.572822    0.149258
   6 H     1.0000    0     1.008   -4.318240    5.597593    0.119123
   7 H     1.0000    0     1.008   -8.661214    3.888679   -0.178362
   8 H     1.0000    0     1.008   -5.720787   -3.666808    0.252251
   9 H     1.0000    0     1.008   -1.385963   -1.983070    0.565362
  10 C     6.0000    0    12.011    0.021556    3.010408    0.500122
  11 C     6.0000    0    12.011    2.216089    1.602688    0.304466
  12 O     8.0000    0    15.999    0.127128    5.501791    0.820964
  13 C     6.0000    0    12.011    4.632146    2.810468    0.443229
  14 C     6.0000    0    12.011    7.001705    1.316891    0.227535
  15 H     1.0000    0     1.008    2.090660   -0.408177   -0.015203
  16 H     1.0000    0     1.008    2.058313    5.891300    0.840680
  17 O     8.0000    0    15.999    4.793723    5.195431    0.731733
  18 C     6.0000    0    12.011    7.020206   -1.330840    0.307134
  19 C     6.0000    0    12.011    9.281474    2.653681   -0.041984
  20 C     6.0000    0    12.011   11.558511    1.342401   -0.244840
  21 C     6.0000    0    12.011   11.572384   -1.311654   -0.158149
  22 H     1.0000    0     1.008    9.205044    4.698234   -0.093021
  23 C     6.0000    0    12.011    9.313290   -2.622503    0.122234
  24 H     1.0000    0     1.008   13.362814   -2.302759   -0.312882
  25 H     1.0000    0     1.008    9.339163   -4.673303    0.198067
  26 H     1.0000    0     1.008    5.282965   -2.390046    0.544201
  27 C     6.0000    0    12.011  -10.037635   -1.134924   -0.166608
  28 O     8.0000    0    15.999  -10.465933   -3.405086   -0.174775
  29 O     8.0000    0    15.999  -11.869248    0.634776   -0.322957
  30 C     6.0000    0    12.011  -14.428864   -0.343975   -0.511102
  31 H     1.0000    0     1.008  -14.613034   -1.491705   -2.216297
  32 H     1.0000    0     1.008  -15.628852    1.324495   -0.607918
  33 H     1.0000    0     1.008  -14.866600   -1.479731    1.155280
  34 O     8.0000    0    15.999   13.862471    2.470370   -0.534652
  35 C     6.0000    0    12.011   13.908728    5.188993   -0.636830
  36 H     1.0000    0     1.008   15.890461    5.690514   -0.885496
  37 H     1.0000    0     1.008   13.184251    5.997997    1.125972
  38 H     1.0000    0     1.008   12.791928    5.877000   -2.238592

--------------------------------
INTERNAL COORDINATES (ANGSTROEM)
--------------------------------
 C      0   0   0     0.000000000000     0.00000000     0.00000000
 C      1   0   0     1.401799812375     0.00000000     0.00000000
 C      2   1   0     1.402444882168   119.52514078     0.00000000
 C      3   2   1     1.386925184677   120.36898793   359.81186620
 C      4   3   2     1.406327211659   120.41874467   359.95767024
 C      1   2   3     1.389513877707   120.10300578     0.10472372
 H      6   1   2     1.084111580809   120.08883672   179.78093089
 H      1   2   3     1.084037209864   119.91577276   179.97384544
 H      3   2   1     1.084939683393   119.11253992   179.55663855
 H      4   3   2     1.084567923050   119.16320537   179.14676281
 C      5   4   3     1.472860476852   121.58963753   180.35831412
 C     11   5   4     1.383566719087   124.19658375    10.38377654
 O     11   5   4     1.330443549556   115.27813978   189.54975908
 C     12  11   5     1.431257273072   120.36522903   179.08314494
 C     14  12  11     1.486611843373   120.80455519   180.18432158
 H     12  11   5     1.079508319674   119.39652332     1.07407823
 H     13  11   5     1.042570572855   103.78904667   181.34246426
 O     14  12  11     1.274140511637   120.55816907   359.54192541
 C     15  14  12     1.401786199189   122.34306925   349.08197957
 C     15  14  12     1.405759539712   117.65251949   169.65123279
 C     20  15  14     1.394611158812   119.92794999   179.82072947
 C     21  20  15     1.405233624981   119.95281613   359.46520482
 H     20  15  14     1.083022969415   118.24148313   359.57749177
 C     22  21  20     1.390079441077   119.85022976     0.19146731
 H     22  21  20     1.086021848533   118.99672229   180.19347278
 H     24  22  21     1.086064609904   119.45483151   180.33257676
 H     19  15  14     1.083990319673   120.95645450   359.59476126
 C      2   1   3     1.488039566360   122.31765099   179.96049802
 O     28   2   1     1.222518552178   124.34317432   179.16296272
 O     28   2   1     1.350292758616   112.41162300   359.24250001
 C     30  28   2     1.453551495881   115.21137149   179.77968981
 H     31  30  28     1.092067411697   109.75050434   299.16502647
 H     31  30  28     1.088760316127   104.93707006   179.70998799
 H     31  30  28     1.092001808278   109.78361709    60.19956086
 O     21  20  15     1.366111022935   124.21765723   179.38552465
 C     35  21  20     1.439857262923   117.12589309   359.91789277
 H     36  35  21     1.089722737582   105.32120403   180.46256738
 H     36  35  21     1.095643345399   110.63921144    61.46614674
 H     36  35  21     1.095567483371   110.60473475   299.46844574

---------------------------
INTERNAL COORDINATES (A.U.)
---------------------------
 C      0   0   0     0.000000000000     0.00000000     0.00000000
 C      1   0   0     2.649017739971     0.00000000     0.00000000
 C      2   1   0     2.650236745216   119.52514078     0.00000000
 C      3   2   1     2.620908767278   120.36898793   359.81186620
 C      4   3   2     2.657573284716   120.41874467   359.95767024
 C      1   2   3     2.625800688149   120.10300578     0.10472372
 H      6   1   2     2.048673986341   120.08883672   179.78093089
 H      1   2   3     2.048533445623   119.91577276   179.97384544
 H      3   2   1     2.050238873436   119.11253992   179.55663855
 H      4   3   2     2.049536348200   119.16320537   179.14676281
 C      5   4   3     2.783302934727   121.58963753   180.35831412
 C     11   5   4     2.614562187082   124.19658375    10.38377654
 O     11   5   4     2.514173945304   115.27813978   189.54975908
 C     12  11   5     2.704684273289   120.36522903   179.08314494
 C     14  12  11     2.809289251419   120.80455519   180.18432158
 H     12  11   5     2.039975083473   119.39652332     1.07407823
 H     13  11   5     1.970172857982   103.78904667   181.34246426
 O     14  12  11     2.407776623128   120.55816907   359.54192541
 C     15  14  12     2.648992014777   122.34306925   349.08197957
 C     15  14  12     2.656500540203   117.65251949   169.65123279
 C     20  15  14     2.635433153466   119.92794999   179.82072947
 C     21  20  15     2.655506705391   119.95281613   359.46520482
 H     20  15  14     2.046616808941   118.24148313   359.57749177
 C     22  21  20     2.626869448030   119.85022976     0.19146731
 H     22  21  20     2.052283869183   118.99672229   180.19347278
 H     24  22  21     2.052364676462   119.45483151   180.33257676
 H     19  15  14     2.048444836004   120.95645450   359.59476126
 C      2   1   3     2.811987256859   122.31765099   179.96049802
 O     28   2   1     2.310225257254   124.34317432   179.16296272
 O     28   2   1     2.551683514402   112.41162300   359.24250001
 C     30  28   2     2.746814248768   115.21137149   179.77968981
 H     31  30  28     2.063708327888   109.75050434   299.16502647
 H     31  30  28     2.057458822961   104.93707006   179.70998799
 H     31  30  28     2.063584355391   109.78361709    60.19956086
 O     21  20  15     2.581575701879   124.21765723   179.38552465
 C     35  21  20     2.720935898862   117.12589309   359.91789277
 H     36  35  21     2.059277535937   105.32120403   180.46256738
 H     36  35  21     2.070465863257   110.63921144    61.46614674
 H     36  35  21     2.070322504801   110.60473475   299.46844574

---------------------
BASIS SET INFORMATION
---------------------
There are 3 groups of distinct atoms

 Group   1 Type C   : 15s8p3d2f1g contracted to 7s4p3d2f1g pattern {8211111/5111/111/11/1}
 Group   2 Type H   : 7s3p2d1f contracted to 4s3p2d1f pattern {4111/111/11/1}
 Group   3 Type O   : 15s8p3d2f1g contracted to 7s4p3d2f1g pattern {8211111/5111/111/11/1}

Atom   0C    basis set group =>   1
Atom   1C    basis set group =>   1
Atom   2C    basis set group =>   1
Atom   3C    basis set group =>   1
Atom   4C    basis set group =>   1
Atom   5C    basis set group =>   1
Atom   6H    basis set group =>   2
Atom   7H    basis set group =>   2
Atom   8H    basis set group =>   2
Atom   9H    basis set group =>   2
Atom  10C    basis set group =>   1
Atom  11C    basis set group =>   1
Atom  12O    basis set group =>   3
Atom  13C    basis set group =>   1
Atom  14C    basis set group =>   1
Atom  15H    basis set group =>   2
Atom  16H    basis set group =>   2
Atom  17O    basis set group =>   3
Atom  18C    basis set group =>   1
Atom  19C    basis set group =>   1
Atom  20C    basis set group =>   1
Atom  21C    basis set group =>   1
Atom  22H    basis set group =>   2
Atom  23C    basis set group =>   1
Atom  24H    basis set group =>   2
Atom  25H    basis set group =>   2
Atom  26H    basis set group =>   2
Atom  27C    basis set group =>   1
Atom  28O    basis set group =>   3
Atom  29O    basis set group =>   3
Atom  30C    basis set group =>   1
Atom  31H    basis set group =>   2
Atom  32H    basis set group =>   2
Atom  33H    basis set group =>   2
Atom  34O    basis set group =>   3
Atom  35C    basis set group =>   1
Atom  36H    basis set group =>   2
Atom  37H    basis set group =>   2
Atom  38H    basis set group =>   2
----------------------------------
AUXILIARY/JK BASIS SET INFORMATION
----------------------------------
There are 3 groups of distinct atoms

 Group   1 Type C   : 14s10p6d2f1g contracted to 10s8p5d1f1g pattern {5111111111/31111111/21111/2/1}
 Group   2 Type H   : 4s2p2d contracted to 2s2p2d pattern {31/11/11}
 Group   3 Type O   : 14s10p6d2f1g contracted to 10s8p4d2f1g pattern {5111111111/31111111/3111/11/1}

Atom   0C    basis set group =>   1
Atom   1C    basis set group =>   1
Atom   2C    basis set group =>   1
Atom   3C    basis set group =>   1
Atom   4C    basis set group =>   1
Atom   5C    basis set group =>   1
Atom   6H    basis set group =>   2
Atom   7H    basis set group =>   2
Atom   8H    basis set group =>   2
Atom   9H    basis set group =>   2
Atom  10C    basis set group =>   1
Atom  11C    basis set group =>   1
Atom  12O    basis set group =>   3
Atom  13C    basis set group =>   1
Atom  14C    basis set group =>   1
Atom  15H    basis set group =>   2
Atom  16H    basis set group =>   2
Atom  17O    basis set group =>   3
Atom  18C    basis set group =>   1
Atom  19C    basis set group =>   1
Atom  20C    basis set group =>   1
Atom  21C    basis set group =>   1
Atom  22H    basis set group =>   2
Atom  23C    basis set group =>   1
Atom  24H    basis set group =>   2
Atom  25H    basis set group =>   2
Atom  26H    basis set group =>   2
Atom  27C    basis set group =>   1
Atom  28O    basis set group =>   3
Atom  29O    basis set group =>   3
Atom  30C    basis set group =>   1
Atom  31H    basis set group =>   2
Atom  32H    basis set group =>   2
Atom  33H    basis set group =>   2
Atom  34O    basis set group =>   3
Atom  35C    basis set group =>   1
Atom  36H    basis set group =>   2
Atom  37H    basis set group =>   2
Atom  38H    basis set group =>   2


           ************************************************************
           *        Program running with 8 parallel MPI-processes     *
           *              working on a common directory               *
           ************************************************************
------------------------------------------------------------------------------
                           ORCA GTO INTEGRAL CALCULATION
                           -- RI-GTO INTEGRALS CHOSEN --
------------------------------------------------------------------------------
------------------------------------------------------------------------------
                   ___                                                        
                  /   \      - P O W E R E D   B Y -                         
                 /     \                                                     
                 |  |  |   _    _      __       _____    __    __             
                 |  |  |  | |  | |    /  \     |  _  \  |  |  /  |          
                  \  \/   | |  | |   /    \    | | | |  |  | /  /          
                 / \  \   | |__| |  /  /\  \   | |_| |  |  |/  /          
                |  |  |   |  __  | /  /__\  \  |    /   |      \           
                |  |  |   | |  | | |   __   |  |    \   |  |\   \          
                \     /   | |  | | |  |  |  |  | |\  \  |  | \   \       
                 \___/    |_|  |_| |__|  |__|  |_| \__\ |__|  \__/        
                                                                              
                      - O R C A' S   B I G   F R I E N D -                    
                                      &                                       
                       - I N T E G R A L  F E E D E R -                       
                                                                              
 v1 FN, 2020, v2 2021                                                         
------------------------------------------------------------------------------


Reading SHARK input file Aldol_Cry_sp.SHARKINP.tmp ... ok
----------------------
SHARK INTEGRAL PACKAGE
----------------------

Number of atoms                             ...     39
Number of basis functions                   ...   1791
Number of shells                            ...    551
Maximum angular momentum                    ...      4
Integral batch strategy                     ... SHARK/LIBINT Hybrid
RI-J (if used) integral strategy            ... SPLIT-RIJ (Revised 2003 algorithm where possible)
Printlevel                                  ...      1
Contraction scheme used                     ... SEGMENTED contraction
Coulomb Range Separation                    ... NOT USED
Exchange Range Separation                   ... NOT USED
Finite Nucleus Model                        ... NOT USED
Auxiliary Coulomb fitting basis             ... NOT available
Auxiliary J/K fitting basis                 ... AVAILABLE
   # of basis functions in Aux-JK           ...   2023
   # of shells in Aux-JK                    ...    671
   Maximum angular momentum in Aux-JK       ...      4
Auxiliary Correlation fitting basis         ... NOT available
Auxiliary 'external' fitting basis          ... NOT available
Integral threshold                          ...     2.500000e-11
Primitive cut-off                           ...     2.500000e-12
Primitive pair pre-selection threshold      ...     2.500000e-12

Calculating pre-screening integrals         ... done (  1.7 sec) Dimension = 551
Organizing shell pair data                  ... done (  3.3 sec)
Shell pair information
Total number of shell pairs                 ...    152076
Shell pairs after pre-screening             ...     75278
Total number of primitive shell pairs       ...    384243
Primitive shell pairs kept                  ...    133495
          la=0 lb=0:  11698 shell pairs
          la=1 lb=0:  17086 shell pairs
          la=1 lb=1:   6051 shell pairs
          la=2 lb=0:  10396 shell pairs
          la=2 lb=1:   7637 shell pairs
          la=2 lb=2:   2373 shell pairs
          la=3 lb=0:   6145 shell pairs
          la=3 lb=1:   4550 shell pairs
          la=3 lb=2:   2745 shell pairs
          la=3 lb=3:    818 shell pairs
          la=4 lb=0:   2321 shell pairs
          la=4 lb=1:   1712 shell pairs
          la=4 lb=2:   1023 shell pairs
          la=4 lb=3:    600 shell pairs
          la=4 lb=4:    123 shell pairs

Calculating one electron integrals          ... done (  0.6 sec)
Calculating RI/JK V-Matrix + Cholesky decomp... done (  0.5 sec)
Calculating Nuclear repulsion               ... done (  0.0 sec) ENN=   1699.757711460940 Eh

SHARK setup successfully completed in  10.9 seconds

Maximum memory used throughout the entire GTOINT-calculation: 140.4 MB


           ************************************************************
           *        Program running with 8 parallel MPI-processes     *
           *              working on a common directory               *
           ************************************************************
-------------------------------------------------------------------------------
                                 ORCA SCF
-------------------------------------------------------------------------------

------------
SCF SETTINGS
------------
Hamiltonian:
 Density Functional     Method          .... DFT(GTOs)
 Exchange Functional    Exchange        .... PW6
 Correlation Functional Correlation     .... B95
 Gradients option       PostSCFGGA      .... off
 Hybrid DFT is turned on
   Fraction HF Exchange ScalHFX         ....  0.280000
   Scaling of DF-GGA-X  ScalDFX         ....  0.720000
   Scaling of DF-GGA-C  ScalDFC         ....  1.000000
   Scaling of DF-LDA-C  ScalLDAC        ....  1.000000
   Perturbative correction              ....  0.000000
   Density functional embedding theory  .... OFF
   NL short-range parameter             ....  9.000000
 RI-approximation to the Coulomb term is turned on
   Number of AuxJK basis functions      .... 2023
   RI-JK (J+K treated both via RI)      .... on


General Settings:
 Integral files         IntName         .... Aldol_Cry_sp
 Hartree-Fock type      HFTyp           .... RHF
 Total Charge           Charge          ....    0
 Multiplicity           Mult            ....    1
 Number of Electrons    NEL             ....  164
 Basis Dimension        Dim             .... 1791
 Nuclear Repulsion      ENuc            ....   1699.7577114609 Eh

Convergence Acceleration:
 DIIS                   CNVDIIS         .... on
   Start iteration      DIISMaxIt       ....    12
   Startup error        DIISStart       ....  0.200000
   # of expansion vecs  DIISMaxEq       ....     5
   Bias factor          DIISBfac        ....   1.050
   Max. coefficient     DIISMaxC        ....  10.000
 Trust-Rad. Augm. Hess. CNVTRAH         .... auto
   Auto Start mean grad. ratio tolernc. ....  1.125000
   Auto Start start iteration           ....    20
   Auto Start num. interpolation iter.  ....    10
   Max. Number of Micro iterations      ....    16
   Max. Number of Macro iterations      .... Maxiter - #DIIS iter
   Number of Davidson start vectors     ....     2
   Converg. threshold I  (grad. norm)   ....   1.000e-05
   Converg. threshold II (energy diff.) ....   1.000e-08
   Grad. Scal. Fac. for Micro threshold ....   0.100
   Minimum threshold for Micro iter.    ....   0.010
   NR start threshold (gradient norm)   ....   0.001
   Initial trust radius                 ....   0.400
   Minimum AH scaling param. (alpha)    ....   1.000
   Maximum AH scaling param. (alpha)    .... 1000.000
   Orbital update algorithm             .... Taylor
   White noise on init. David. guess    .... on
   Maximum white noise                  ....   0.010
   Quad. conv. algorithm                .... NR
 SOSCF                  CNVSOSCF        .... on
   Start iteration      SOSCFMaxIt      ....   150
   Startup grad/error   SOSCFStart      ....  0.003300
 Level Shifting         CNVShift        .... on
   Level shift para.    LevelShift      ....    0.2500
   Turn off err/grad.   ShiftErr        ....    0.0010
 Zerner damping         CNVZerner       .... off
 Static damping         CNVDamp         .... on
   Fraction old density DampFac         ....    0.7000
   Max. Damping (<1)    DampMax         ....    0.9800
   Min. Damping (>=0)   DampMin         ....    0.0000
   Turn off err/grad.   DampErr         ....    0.1000
 Fernandez-Rico         CNVRico         .... off

SCF Procedure:
 Maximum # iterations   MaxIter         ....   125
 SCF integral mode      SCFMode         .... Direct
   Integral package                     .... SHARK and LIBINT hybrid scheme
 Reset frequency        DirectResetFreq ....    20
 Integral Threshold     Thresh          ....  2.500e-11 Eh
 Primitive CutOff       TCut            ....  2.500e-12 Eh

Convergence Tolerance:
 Convergence Check Mode ConvCheckMode   .... Total+1el-Energy
 Convergence forced     ConvForced      .... 0
 Energy Change          TolE            ....  1.000e-08 Eh
 1-El. energy change                    ....  1.000e-05 Eh
 Orbital Gradient       TolG            ....  1.000e-05
 Orbital Rotation angle TolX            ....  1.000e-05
 DIIS Error             TolErr          ....  5.000e-07


Diagonalization of the overlap matrix:
Smallest eigenvalue                        ... 4.935e-06
Time for diagonalization                   ...    1.588 sec
Threshold for overlap eigenvalues          ... 1.000e-08
Number of eigenvalues below threshold      ... 0
Time for construction of square roots      ...    1.230 sec
Total time needed                          ...    2.844 sec

Time for model grid setup =    2.464 sec

------------------------------
INITIAL GUESS: MODEL POTENTIAL
------------------------------
Loading Hartree-Fock densities                     ... done
Calculating cut-offs                               ... done
Initializing the effective Hamiltonian             ... done
Setting up the integral package (SHARK)            ... done
Starting the Coulomb interaction                   ... done (   3.8 sec)
Reading the grid                                   ... done
Mapping shells                                     ... done
Starting the XC term evaluation                    ... done (   2.4 sec)
  promolecular density results
     # of electrons  =    163.987835686
     EX              =   -140.544130521
     EC              =    -10.620643748
     EX+EC           =   -151.164774269
Transforming the Hamiltonian                       ... done (   1.0 sec)
Diagonalizing the Hamiltonian                      ... done (   1.8 sec)
Back transforming the eigenvectors                 ... done (   0.5 sec)
Now organizing SCF variables                       ... done
                      ------------------
                      INITIAL GUESS DONE (  12.2 sec)
                      ------------------
-------------------
DFT GRID GENERATION
-------------------

General Integration Accuracy     IntAcc      ... 4.388
Radial Grid Type                 RadialGrid  ... OptM3 with GC (2021)
Angular Grid (max. ang.)         AngularGrid ... 4 (Lebedev-302)
Angular grid pruning method      GridPruning ... 4 (adaptive)
Weight generation scheme         WeightScheme... Becke
Basis function cutoff            BFCut       ... 1.0000e-11
Integration weight cutoff        WCut        ... 1.0000e-14
Angular grids for H and He will be reduced by one unit
Partially contracted basis set               ... off
Rotationally invariant grid construction     ... off

Total number of grid points                  ...   194827
Total number of batches                      ...     3062
Average number of points per batch           ...       63
Average number of grid points per atom       ...     4996
Time for grid setup =    6.709 sec


--------------------
CPCM SOLVATION MODEL
--------------------
CPCM parameters:
  Epsilon                                         ...       7.2500
  Refrac                                          ...       1.4070
  Rsolv                                           ...       1.3000
  Surface type                                    ... GAUSSIAN VDW
  Epsilon function type                           ...         CPCM
Radii:
 Radius for C  used is    3.8550 Bohr (=   2.0400 Ang.)
 Radius for H  used is    2.4944 Bohr (=   1.3200 Ang.)
 Radius for O  used is    3.4469 Bohr (=   1.8240 Ang.)
Calculating surface                               ...        done! (  0.0s)
GEPOL surface points                              ...         2047
GEPOL Volume                                      ...    2462.5776
GEPOL Surface-area                                ...    1269.7876
Calculating surface distance matrix               ...        done! (  0.1s)
Performing Cholesky decomposition & store         ...        done! (  0.6s)
Overall time for CPCM initialization              ...                 0.7s
--------------
SCF ITERATIONS
--------------
ITER       Energy         Delta-E        Max-DP      RMS-DP      [F,P]     Damp
  0  -1072.7633344391   0.000000000000 0.03669908  0.00023534  0.3734156 0.7000
  1  -1072.7046951962   0.058639242845 0.03121951  0.00022658  0.2045978 0.7000
                               ***Turning on DIIS***
  2  -1072.9261937150  -0.221498518748 0.07215544  0.00042622  0.0694625 0.0000
  3  -1073.3951968734  -0.469003158485 0.01195663  0.00006559  0.1253046 0.7000
  4  -1073.4986606155  -0.103463742097 0.04610006  0.00025073  0.0923584 0.0000
  5  -1073.4975138758   0.001146739788 0.00646817  0.00004024  0.0380232 0.0000
  6  -1073.5018096204  -0.004295744627 0.00278980  0.00001567  0.0087998 0.0000
                      *** Initiating the SOSCF procedure ***
                           *** Shutting down DIIS ***
                      *** Re-Reading the Fockian *** 
                      *** Removing any level shift *** 
ITER      Energy       Delta-E        Grad      Rot      Max-DP    RMS-DP
  7  -1073.50203416  -0.0002245390  0.000444  0.000444  0.001018  0.000007
  8  -1073.50208214  -0.0000479804  0.000285  0.000972  0.000960  0.000006
  9  -1073.50208135   0.0000007942  0.000374  0.000434  0.000332  0.000002
 10  -1073.50209091  -0.0000095636  0.000070  0.000146  0.000271  0.000002
 11  -1073.50209093  -0.0000000166  0.000046  0.000076  0.000071  0.000001
 12  -1073.50209161  -0.0000006811  0.000013  0.000031  0.000053  0.000000
 13  -1073.50209159   0.0000000133  0.000017  0.000018  0.000026  0.000000
                  ***Gradient check signals convergence***
              ***Rediagonalizing the Fockian in SOSCF/NRSCF***

               *****************************************************
               *                     SUCCESS                       *
               *           SCF CONVERGED AFTER  14 CYCLES          *
               *****************************************************


----------------
TOTAL SCF ENERGY
----------------

Total Energy       :        -1073.50209162 Eh          -29211.47700 eV

Components:
Nuclear Repulsion  :         1699.75771146 Eh           46252.75877 eV
Electronic Energy  :        -2773.25980309 Eh          -75464.23577 eV
One Electron Energy:        -4835.70140123 Eh         -131586.12484 eV
Two Electron Energy:         2062.44159814 Eh           56121.88907 eV
CPCM Dielectric    :           -0.01824120 Eh              -0.49637 eV

Virial components:
Potential Energy   :        -2141.98689309 Eh          -58286.42659 eV
Kinetic Energy     :         1068.48480146 Eh           29074.94959 eV
Virial Ratio       :            2.00469571


DFT components:
N(Alpha)           :       81.999995003618 electrons
N(Beta)            :       81.999995003618 electrons
N(Total)           :      163.999990007237 electrons
E(X)               :     -103.026118616400 Eh       
E(C)               :       -5.863610850425 Eh       
E(XC)              :     -108.889729466825 Eh       
DFET-embed. en.    :        0.000000000000 Eh       
CPCM Solvation Model Properties:
Surface-charge          :           -0.03467531
Charge-correction       :           -0.00004082 Eh              -0.00111 eV
Free-energy (cav+disp)  :  This term is not implemented in the current solvation scheme

---------------
SCF CONVERGENCE
---------------

  Last Energy change         ...   -3.0621e-08  Tolerance :   1.0000e-08
  Last MAX-Density change    ...    5.4812e-05  Tolerance :   1.0000e-07
  Last RMS-Density change    ...    3.1509e-07  Tolerance :   5.0000e-09
  Last Orbital Gradient      ...    1.1429e-06  Tolerance :   1.0000e-05
  Last Orbital Rotation      ...    3.0847e-06  Tolerance :   1.0000e-05

             **** THE GBW FILE WAS UPDATED (Aldol_Cry_sp.gbw) ****
             **** DENSITY Aldol_Cry_sp.scfp WAS UPDATED ****
             **** ENERGY FILE WAS UPDATED (Aldol_Cry_sp.en.tmp) ****
             **** THE GBW FILE WAS UPDATED (Aldol_Cry_sp.gbw) ****
             **** DENSITY Aldol_Cry_sp.scfp WAS UPDATED ****
----------------
ORBITAL ENERGIES
----------------

  NO   OCC          E(Eh)            E(eV) 
   0   2.0000     -19.350448      -526.5525 
   1   2.0000     -19.332726      -526.0702 
   2   2.0000     -19.330009      -525.9963 
   3   2.0000     -19.294804      -525.0383 
   4   2.0000     -19.294523      -525.0307 
   5   2.0000     -10.440781      -284.1081 
   6   2.0000     -10.401083      -283.0278 
   7   2.0000     -10.398607      -282.9605 
   8   2.0000     -10.371263      -282.2164 
   9   2.0000     -10.349283      -281.6183 
  10   2.0000     -10.345141      -281.5056 
  11   2.0000     -10.336672      -281.2751 
  12   2.0000     -10.333925      -281.2004 
  13   2.0000     -10.323974      -280.9296 
  14   2.0000     -10.323086      -280.9054 
  15   2.0000     -10.322226      -280.8820 
  16   2.0000     -10.321159      -280.8530 
  17   2.0000     -10.320192      -280.8267 
  18   2.0000     -10.312204      -280.6093 
  19   2.0000     -10.310944      -280.5751 
  20   2.0000     -10.310747      -280.5697 
  21   2.0000     -10.309089      -280.5246 
  22   2.0000     -10.302725      -280.3514 
  23   2.0000      -1.142006       -31.0756 
  24   2.0000      -1.112725       -30.2788 
  25   2.0000      -1.098522       -29.8923 
  26   2.0000      -1.063122       -28.9290 
  27   2.0000      -1.054559       -28.6960 
  28   2.0000      -0.908554       -24.7230 
  29   2.0000      -0.892501       -24.2862 
  30   2.0000      -0.837429       -22.7876 
  31   2.0000      -0.810169       -22.0458 
  32   2.0000      -0.792423       -21.5629 
  33   2.0000      -0.786050       -21.3895 
  34   2.0000      -0.780915       -21.2498 
  35   2.0000      -0.752917       -20.4879 
  36   2.0000      -0.725090       -19.7307 
  37   2.0000      -0.698142       -18.9974 
  38   2.0000      -0.672766       -18.3069 
  39   2.0000      -0.645692       -17.5702 
  40   2.0000      -0.629708       -17.1352 
  41   2.0000      -0.620376       -16.8813 
  42   2.0000      -0.595267       -16.1980 
  43   2.0000      -0.594330       -16.1725 
  44   2.0000      -0.569105       -15.4861 
  45   2.0000      -0.555061       -15.1040 
  46   2.0000      -0.534203       -14.5364 
  47   2.0000      -0.516337       -14.0502 
  48   2.0000      -0.514485       -13.9999 
  49   2.0000      -0.509539       -13.8653 
  50   2.0000      -0.508478       -13.8364 
  51   2.0000      -0.500165       -13.6102 
  52   2.0000      -0.489481       -13.3195 
  53   2.0000      -0.485483       -13.2107 
  54   2.0000      -0.476736       -12.9727 
  55   2.0000      -0.469102       -12.7649 
  56   2.0000      -0.467471       -12.7205 
  57   2.0000      -0.462420       -12.5831 
  58   2.0000      -0.457685       -12.4542 
  59   2.0000      -0.452126       -12.3030 
  60   2.0000      -0.439935       -11.9712 
  61   2.0000      -0.434133       -11.8133 
  62   2.0000      -0.430506       -11.7147 
  63   2.0000      -0.423728       -11.5302 
  64   2.0000      -0.410942       -11.1823 
  65   2.0000      -0.399382       -10.8677 
  66   2.0000      -0.399032       -10.8582 
  67   2.0000      -0.394132       -10.7249 
  68   2.0000      -0.390046       -10.6137 
  69   2.0000      -0.386140       -10.5074 
  70   2.0000      -0.379262       -10.3202 
  71   2.0000      -0.369063       -10.0427 
  72   2.0000      -0.357785        -9.7358 
  73   2.0000      -0.347895        -9.4667 
  74   2.0000      -0.336089        -9.1455 
  75   2.0000      -0.315139        -8.5754 
  76   2.0000      -0.305205        -8.3050 
  77   2.0000      -0.297214        -8.0876 
  78   2.0000      -0.289576        -7.8798 
  79   2.0000      -0.283576        -7.7165 
  80   2.0000      -0.263291        -7.1645 
  81   2.0000      -0.247321        -6.7299 
  82   0.0000      -0.097044        -2.6407 
  83   0.0000      -0.053033        -1.4431 
  84   0.0000      -0.023022        -0.6265 
  85   0.0000      -0.005891        -0.1603 
  86   0.0000      -0.001537        -0.0418 
  87   0.0000       0.024903         0.6777 
  88   0.0000       0.030162         0.8208 
  89   0.0000       0.037170         1.0115 
  90   0.0000       0.045958         1.2506 
  91   0.0000       0.047801         1.3007 
  92   0.0000       0.053871         1.4659 
  93   0.0000       0.056243         1.5305 
  94   0.0000       0.059498         1.6190 
  95   0.0000       0.068925         1.8755 
  96   0.0000       0.071230         1.9383 
  97   0.0000       0.079934         2.1751 
  98   0.0000       0.080798         2.1986 
  99   0.0000       0.088282         2.4023 
 100   0.0000       0.090983         2.4758 
 101   0.0000       0.092176         2.5082 
 102   0.0000       0.095934         2.6105 
 103   0.0000       0.097758         2.6601 
 104   0.0000       0.102919         2.8006 
 105   0.0000       0.107556         2.9267 
 106   0.0000       0.111762         3.0412 
 107   0.0000       0.120026         3.2661 
 108   0.0000       0.124638         3.3916 
 109   0.0000       0.128405         3.4941 
 110   0.0000       0.130958         3.5635 
 111   0.0000       0.132792         3.6135 
 112   0.0000       0.136715         3.7202 
 113   0.0000       0.139260         3.7895 
 114   0.0000       0.145729         3.9655 
 115   0.0000       0.147732         4.0200 
 116   0.0000       0.152189         4.1413 
 117   0.0000       0.157217         4.2781 
 118   0.0000       0.160299         4.3620 
 119   0.0000       0.162427         4.4199 
 120   0.0000       0.167844         4.5673 
 121   0.0000       0.172063         4.6821 
 122   0.0000       0.174891         4.7590 
 123   0.0000       0.176609         4.8058 
 124   0.0000       0.182346         4.9619 
 125   0.0000       0.186772         5.0823 
 126   0.0000       0.189671         5.1612 
 127   0.0000       0.194946         5.3048 
 128   0.0000       0.196307         5.3418 
 129   0.0000       0.199039         5.4161 
 130   0.0000       0.203938         5.5494 
 131   0.0000       0.205047         5.5796 
 132   0.0000       0.213782         5.8173 
 133   0.0000       0.216237         5.8841 
 134   0.0000       0.221447         6.0259 
 135   0.0000       0.226337         6.1589 
 136   0.0000       0.227925         6.2022 
 137   0.0000       0.230346         6.2680 
 138   0.0000       0.235954         6.4206 
 139   0.0000       0.239042         6.5047 
 140   0.0000       0.243135         6.6160 
 141   0.0000       0.249453         6.7880 
 142   0.0000       0.253256         6.8915 
 143   0.0000       0.256588         6.9821 
 144   0.0000       0.259892         7.0720 
 145   0.0000       0.260541         7.0897 
 146   0.0000       0.263487         7.1698 
 147   0.0000       0.264793         7.2054 
 148   0.0000       0.273820         7.4510 
 149   0.0000       0.278055         7.5663 
 150   0.0000       0.282060         7.6752 
 151   0.0000       0.288457         7.8493 
 152   0.0000       0.292046         7.9470 
 153   0.0000       0.295206         8.0330 
 154   0.0000       0.296639         8.0720 
 155   0.0000       0.299294         8.1442 
 156   0.0000       0.304444         8.2843 
 157   0.0000       0.307783         8.3752 
 158   0.0000       0.309296         8.4164 
 159   0.0000       0.315222         8.5776 
 160   0.0000       0.318231         8.6595 
 161   0.0000       0.322423         8.7736 
 162   0.0000       0.323806         8.8112 
 163   0.0000       0.325721         8.8633 
 164   0.0000       0.329148         8.9566 
 165   0.0000       0.330272         8.9872 
 166   0.0000       0.331580         9.0227 
 167   0.0000       0.337207         9.1759 
 168   0.0000       0.338189         9.2026 
 169   0.0000       0.341007         9.2793 
 170   0.0000       0.343524         9.3478 
 171   0.0000       0.350023         9.5246 
 172   0.0000       0.353832         9.6283 
 173   0.0000       0.355913         9.6849 
 174   0.0000       0.357570         9.7300 
 175   0.0000       0.362842         9.8734 
 176   0.0000       0.367563        10.0019 
 177   0.0000       0.374587        10.1930 
 178   0.0000       0.378564        10.3013 
 179   0.0000       0.381841        10.3904 
 180   0.0000       0.386356        10.5133 
 181   0.0000       0.388047        10.5593 
 182   0.0000       0.393792        10.7156 
 183   0.0000       0.395138        10.7523 
 184   0.0000       0.397388        10.8135 
 185   0.0000       0.403261        10.9733 
 186   0.0000       0.404163        10.9978 
 187   0.0000       0.407412        11.0862 
 188   0.0000       0.411961        11.2100 
 189   0.0000       0.419213        11.4074 
 190   0.0000       0.423082        11.5126 
 191   0.0000       0.423570        11.5259 
 192   0.0000       0.430727        11.7207 
 193   0.0000       0.433998        11.8097 
 194   0.0000       0.437876        11.9152 
 195   0.0000       0.440240        11.9795 
 196   0.0000       0.446054        12.1378 
 197   0.0000       0.448052        12.1921 
 198   0.0000       0.453214        12.3326 
 199   0.0000       0.458303        12.4711 
 200   0.0000       0.459048        12.4913 
 201   0.0000       0.461949        12.5703 
 202   0.0000       0.462754        12.5922 
 203   0.0000       0.470817        12.8116 
 204   0.0000       0.471339        12.8258 
 205   0.0000       0.476607        12.9691 
 206   0.0000       0.481726        13.1084 
 207   0.0000       0.486966        13.2510 
 208   0.0000       0.488146        13.2831 
 209   0.0000       0.488974        13.3057 
 210   0.0000       0.490248        13.3403 
 211   0.0000       0.498600        13.5676 
 212   0.0000       0.501493        13.6463 
 213   0.0000       0.505164        13.7462 
 214   0.0000       0.509864        13.8741 
 215   0.0000       0.513888        13.9836 
 216   0.0000       0.515715        14.0333 
 217   0.0000       0.519651        14.1404 
 218   0.0000       0.523055        14.2331 
 219   0.0000       0.527762        14.3611 
 220   0.0000       0.532342        14.4858 
 221   0.0000       0.536708        14.6046 
 222   0.0000       0.541073        14.7234 
 223   0.0000       0.543898        14.8002 
 224   0.0000       0.553074        15.0499 
 225   0.0000       0.557639        15.1741 
 226   0.0000       0.561494        15.2790 
 227   0.0000       0.565121        15.3777 
 228   0.0000       0.567877        15.4527 
 229   0.0000       0.577161        15.7054 
 230   0.0000       0.579923        15.7805 
 231   0.0000       0.585352        15.9282 
 232   0.0000       0.589807        16.0495 
 233   0.0000       0.597146        16.2492 
 234   0.0000       0.597536        16.2598 
 235   0.0000       0.604055        16.4372 
 236   0.0000       0.606711        16.5094 
 237   0.0000       0.610153        16.6031 
 238   0.0000       0.613850        16.7037 
 239   0.0000       0.622759        16.9461 
 240   0.0000       0.627801        17.0833 
 241   0.0000       0.630853        17.1664 
 242   0.0000       0.632982        17.2243 
 243   0.0000       0.637011        17.3340 
 244   0.0000       0.642190        17.4749 
 245   0.0000       0.646251        17.5854 
 246   0.0000       0.647109        17.6087 
 247   0.0000       0.655494        17.8369 
 248   0.0000       0.657363        17.8878 
 249   0.0000       0.662369        18.0240 
 250   0.0000       0.666675        18.1412 
 251   0.0000       0.671971        18.2853 
 252   0.0000       0.675437        18.3796 
 253   0.0000       0.679656        18.4944 
 254   0.0000       0.682477        18.5711 
 255   0.0000       0.684990        18.6395 
 256   0.0000       0.690745        18.7961 
 257   0.0000       0.698273        19.0010 
 258   0.0000       0.703705        19.1488 
 259   0.0000       0.706937        19.2367 
 260   0.0000       0.716101        19.4861 
 261   0.0000       0.718567        19.5532 
 262   0.0000       0.720183        19.5972 
 263   0.0000       0.725527        19.7426 
 264   0.0000       0.727993        19.8097 
 265   0.0000       0.730346        19.8737 
 266   0.0000       0.737039        20.0558 
 267   0.0000       0.741562        20.1789 
 268   0.0000       0.742778        20.2120 
 269   0.0000       0.745791        20.2940 
 270   0.0000       0.756213        20.5776 
 271   0.0000       0.759264        20.6606 
 272   0.0000       0.760112        20.6837 
 273   0.0000       0.764804        20.8114 
 274   0.0000       0.768227        20.9045 
 275   0.0000       0.779804        21.2195 
 276   0.0000       0.781740        21.2722 
 277   0.0000       0.782290        21.2872 
 278   0.0000       0.787198        21.4208 
 279   0.0000       0.793608        21.5952 
 280   0.0000       0.798228        21.7209 
 281   0.0000       0.801801        21.8181 
 282   0.0000       0.804631        21.8951 
 283   0.0000       0.807378        21.9699 
 284   0.0000       0.810944        22.0669 
 285   0.0000       0.816907        22.2292 
 286   0.0000       0.823445        22.4071 
 287   0.0000       0.826579        22.4924 
 288   0.0000       0.829304        22.5665 
 289   0.0000       0.831592        22.6288 
 290   0.0000       0.833642        22.6846 
 291   0.0000       0.837257        22.7829 
 292   0.0000       0.844502        22.9801 
 293   0.0000       0.846604        23.0373 
 294   0.0000       0.853643        23.2288 
 295   0.0000       0.856071        23.2949 
 296   0.0000       0.864959        23.5367 
 297   0.0000       0.867535        23.6068 
 298   0.0000       0.871652        23.7189 
 299   0.0000       0.873260        23.7626 
 300   0.0000       0.878795        23.9132 
 301   0.0000       0.883208        24.0333 
 302   0.0000       0.885550        24.0970 
 303   0.0000       0.889083        24.1932 
 304   0.0000       0.894426        24.3386 
 305   0.0000       0.896973        24.4079 
 306   0.0000       0.900386        24.5008 
 307   0.0000       0.904543        24.6139 
 308   0.0000       0.909037        24.7362 
 309   0.0000       0.914961        24.8973 
 310   0.0000       0.918259        24.9871 
 311   0.0000       0.928194        25.2574 
 312   0.0000       0.932893        25.3853 
 313   0.0000       0.934825        25.4379 
 314   0.0000       0.938546        25.5391 
 315   0.0000       0.944147        25.6915 
 316   0.0000       0.948357        25.8061 
 317   0.0000       0.950676        25.8692 
 318   0.0000       0.955521        26.0010 
 319   0.0000       0.957853        26.0645 
 320   0.0000       0.960181        26.1278 
 321   0.0000       0.967339        26.3226 
 322   0.0000       0.967862        26.3369 
 323   0.0000       0.972339        26.4587 
 324   0.0000       0.976376        26.5685 
 325   0.0000       0.980519        26.6813 
 326   0.0000       0.985038        26.8042 
 327   0.0000       0.992253        27.0006 
 328   0.0000       0.995567        27.0907 
 329   0.0000       0.999118        27.1874 
 330   0.0000       1.000552        27.2264 
 331   0.0000       1.001815        27.2608 
 332   0.0000       1.004181        27.3252 
 333   0.0000       1.008665        27.4472 
 334   0.0000       1.015235        27.6259 
 335   0.0000       1.018695        27.7201 
 336   0.0000       1.023767        27.8581 
 337   0.0000       1.025302        27.8999 
 338   0.0000       1.028554        27.9884 
 339   0.0000       1.037795        28.2398 
 340   0.0000       1.044582        28.4245 
 341   0.0000       1.048150        28.5216 
 342   0.0000       1.048918        28.5425 
 343   0.0000       1.053857        28.6769 
 344   0.0000       1.056140        28.7390 
 345   0.0000       1.060520        28.8582 
 346   0.0000       1.061196        28.8766 
 347   0.0000       1.067073        29.0365 
 348   0.0000       1.069993        29.1160 
 349   0.0000       1.072303        29.1788 
 350   0.0000       1.074089        29.2275 
 351   0.0000       1.078163        29.3383 
 352   0.0000       1.081861        29.4389 
 353   0.0000       1.092353        29.7244 
 354   0.0000       1.093728        29.7619 
 355   0.0000       1.098963        29.9043 
 356   0.0000       1.102427        29.9986 
 357   0.0000       1.108739        30.1703 
 358   0.0000       1.114483        30.3266 
 359   0.0000       1.120927        30.5020 
 360   0.0000       1.123457        30.5708 
 361   0.0000       1.129784        30.7430 
 362   0.0000       1.137144        30.9432 
 363   0.0000       1.138926        30.9917 
 364   0.0000       1.146037        31.1852 
 365   0.0000       1.151228        31.3265 
 366   0.0000       1.156693        31.4752 
 367   0.0000       1.160993        31.5922 
 368   0.0000       1.164684        31.6927 
 369   0.0000       1.165092        31.7038 
 370   0.0000       1.176662        32.0186 
 371   0.0000       1.179905        32.1068 
 372   0.0000       1.190076        32.3836 
 373   0.0000       1.192501        32.4496 
 374   0.0000       1.197081        32.5742 
 375   0.0000       1.201722        32.7005 
 376   0.0000       1.204667        32.7807 
 377   0.0000       1.211442        32.9650 
 378   0.0000       1.219993        33.1977 
 379   0.0000       1.229667        33.4609 
 380   0.0000       1.235614        33.6228 
 381   0.0000       1.243688        33.8425 
 382   0.0000       1.247306        33.9409 
 383   0.0000       1.254175        34.1278 
 384   0.0000       1.256641        34.1949 
 385   0.0000       1.265671        34.4407 
 386   0.0000       1.271731        34.6056 
 387   0.0000       1.274219        34.6733 
 388   0.0000       1.276596        34.7379 
 389   0.0000       1.281438        34.8697 
 390   0.0000       1.289362        35.0853 
 391   0.0000       1.296132        35.2695 
 392   0.0000       1.299970        35.3740 
 393   0.0000       1.309342        35.6290 
 394   0.0000       1.313632        35.7457 
 395   0.0000       1.323791        36.0222 
 396   0.0000       1.326271        36.0897 
 397   0.0000       1.333701        36.2918 
 398   0.0000       1.336798        36.3761 
 399   0.0000       1.341908        36.5152 
 400   0.0000       1.350885        36.7594 
 401   0.0000       1.358317        36.9617 
 402   0.0000       1.367079        37.2001 
 403   0.0000       1.370516        37.2936 
 404   0.0000       1.373454        37.3736 
 405   0.0000       1.376618        37.4597 
 406   0.0000       1.385509        37.7016 
 407   0.0000       1.390434        37.8356 
 408   0.0000       1.401250        38.1300 
 409   0.0000       1.404912        38.2296 
 410   0.0000       1.412028        38.4232 
 411   0.0000       1.414518        38.4910 
 412   0.0000       1.424626        38.7661 
 413   0.0000       1.426656        38.8213 
 414   0.0000       1.428664        38.8759 
 415   0.0000       1.445052        39.3219 
 416   0.0000       1.446029        39.3484 
 417   0.0000       1.457233        39.6533 
 418   0.0000       1.457895        39.6713 
 419   0.0000       1.462122        39.7864 
 420   0.0000       1.465210        39.8704 
 421   0.0000       1.468785        39.9677 
 422   0.0000       1.476483        40.1771 
 423   0.0000       1.482226        40.3334 
 424   0.0000       1.487194        40.4686 
 425   0.0000       1.489378        40.5280 
 426   0.0000       1.496951        40.7341 
 427   0.0000       1.498393        40.7733 
 428   0.0000       1.502464        40.8841 
 429   0.0000       1.506642        40.9978 
 430   0.0000       1.514788        41.2195 
 431   0.0000       1.520946        41.3870 
 432   0.0000       1.526643        41.5421 
 433   0.0000       1.532807        41.7098 
 434   0.0000       1.540134        41.9092 
 435   0.0000       1.544686        42.0331 
 436   0.0000       1.554488        42.2998 
 437   0.0000       1.558438        42.4072 
 438   0.0000       1.572802        42.7981 
 439   0.0000       1.575550        42.8729 
 440   0.0000       1.578624        42.9566 
 441   0.0000       1.594630        43.3921 
 442   0.0000       1.599824        43.5334 
 443   0.0000       1.605563        43.6896 
 444   0.0000       1.610394        43.8211 
 445   0.0000       1.616872        43.9973 
 446   0.0000       1.625332        44.2275 
 447   0.0000       1.632790        44.4305 
 448   0.0000       1.641208        44.6595 
 449   0.0000       1.643400        44.7192 
 450   0.0000       1.648478        44.8574 
 451   0.0000       1.649088        44.8740 
 452   0.0000       1.666895        45.3585 
 453   0.0000       1.674184        45.5569 
 454   0.0000       1.675861        45.6025 
 455   0.0000       1.678461        45.6732 
 456   0.0000       1.683841        45.8196 
 457   0.0000       1.689804        45.9819 
 458   0.0000       1.694068        46.0979 
 459   0.0000       1.697770        46.1987 
 460   0.0000       1.701638        46.3039 
 461   0.0000       1.703115        46.3441 
 462   0.0000       1.714207        46.6459 
 463   0.0000       1.715277        46.6751 
 464   0.0000       1.722876        46.8818 
 465   0.0000       1.727898        47.0185 
 466   0.0000       1.738616        47.3101 
 467   0.0000       1.743741        47.4496 
 468   0.0000       1.749089        47.5951 
 469   0.0000       1.752168        47.6789 
 470   0.0000       1.755782        47.7772 
 471   0.0000       1.757343        47.8197 
 472   0.0000       1.761319        47.9279 
 473   0.0000       1.773493        48.2592 
 474   0.0000       1.778009        48.3821 
 475   0.0000       1.780307        48.4446 
 476   0.0000       1.780879        48.4602 
 477   0.0000       1.784698        48.5641 
 478   0.0000       1.795533        48.8589 
 479   0.0000       1.797814        48.9210 
 480   0.0000       1.804370        49.0994 
 481   0.0000       1.809573        49.2410 
 482   0.0000       1.814094        49.3640 
 483   0.0000       1.822390        49.5897 
 484   0.0000       1.823253        49.6132 
 485   0.0000       1.830517        49.8109 
 486   0.0000       1.836193        49.9654 
 487   0.0000       1.837715        50.0068 
 488   0.0000       1.846470        50.2450 
 489   0.0000       1.847420        50.2708 
 490   0.0000       1.853046        50.4240 
 491   0.0000       1.857945        50.5573 
 492   0.0000       1.864788        50.7435 
 493   0.0000       1.870369        50.8953 
 494   0.0000       1.872466        50.9524 
 495   0.0000       1.881270        51.1920 
 496   0.0000       1.884962        51.2924 
 497   0.0000       1.886732        51.3406 
 498   0.0000       1.891178        51.4616 
 499   0.0000       1.893272        51.5186 
 500   0.0000       1.893469        51.5239 
 501   0.0000       1.902828        51.7786 
 502   0.0000       1.912165        52.0327 
 503   0.0000       1.917034        52.1651 
 504   0.0000       1.925105        52.3848 
 505   0.0000       1.927339        52.4456 
 506   0.0000       1.930115        52.5211 
 507   0.0000       1.935186        52.6591 
 508   0.0000       1.940985        52.8169 
 509   0.0000       1.945704        52.9453 
 510   0.0000       1.948608        53.0243 
 511   0.0000       1.951759        53.1101 
 512   0.0000       1.954005        53.1712 
 513   0.0000       1.957729        53.2725 
 514   0.0000       1.958377        53.2901 
 515   0.0000       1.965269        53.4777 
 516   0.0000       1.969950        53.6051 
 517   0.0000       1.974972        53.7417 
 518   0.0000       1.979021        53.8519 
 519   0.0000       1.982031        53.9338 
 520   0.0000       1.986187        54.0469 
 521   0.0000       1.987186        54.0741 
 522   0.0000       1.992267        54.2124 
 523   0.0000       1.998099        54.3710 
 524   0.0000       2.006111        54.5891 
 525   0.0000       2.012140        54.7531 
 526   0.0000       2.018282        54.9203 
 527   0.0000       2.021475        55.0071 
 528   0.0000       2.025223        55.1091 
 529   0.0000       2.034480        55.3610 
 530   0.0000       2.040325        55.5201 
 531   0.0000       2.044839        55.6429 
 532   0.0000       2.047132        55.7053 
 533   0.0000       2.050670        55.8016 
 534   0.0000       2.051555        55.8257 
 535   0.0000       2.055979        55.9460 
 536   0.0000       2.062398        56.1207 
 537   0.0000       2.065868        56.2151 
 538   0.0000       2.072094        56.3845 
 539   0.0000       2.074373        56.4466 
 540   0.0000       2.076289        56.4987 
 541   0.0000       2.077656        56.5359 
 542   0.0000       2.082709        56.6734 
 543   0.0000       2.089329        56.8535 
 544   0.0000       2.090301        56.8800 
 545   0.0000       2.096719        57.0546 
 546   0.0000       2.103366        57.2355 
 547   0.0000       2.112735        57.4905 
 548   0.0000       2.116001        57.5793 
 549   0.0000       2.117771        57.6275 
 550   0.0000       2.123848        57.7928 
 551   0.0000       2.127655        57.8964 
 552   0.0000       2.131976        58.0140 
 553   0.0000       2.138279        58.1855 
 554   0.0000       2.140155        58.2366 
 555   0.0000       2.143194        58.3193 
 556   0.0000       2.147445        58.4350 
 557   0.0000       2.149336        58.4864 
 558   0.0000       2.155677        58.6590 
 559   0.0000       2.156958        58.6938 
 560   0.0000       2.161961        58.8300 
 561   0.0000       2.164742        58.9056 
 562   0.0000       2.173040        59.1314 
 563   0.0000       2.176867        59.2356 
 564   0.0000       2.179466        59.3063 
 565   0.0000       2.182218        59.3812 
 566   0.0000       2.185861        59.4803 
 567   0.0000       2.187151        59.5154 
 568   0.0000       2.189705        59.5849 
 569   0.0000       2.194860        59.7252 
 570   0.0000       2.200499        59.8786 
 571   0.0000       2.203769        59.9676 
 572   0.0000       2.207393        60.0662 
 573   0.0000       2.214348        60.2555 
 574   0.0000       2.216982        60.3272 
 575   0.0000       2.219928        60.4073 
 576   0.0000       2.223785        60.5123 
 577   0.0000       2.228911        60.6517 
 578   0.0000       2.232860        60.7592 
 579   0.0000       2.238283        60.9068 
 580   0.0000       2.243396        61.0459 
 581   0.0000       2.249768        61.2193 
 582   0.0000       2.254168        61.3390 
 583   0.0000       2.259367        61.4805 
 584   0.0000       2.264045        61.6078 
 585   0.0000       2.270260        61.7769 
 586   0.0000       2.277629        61.9774 
 587   0.0000       2.281126        62.0726 
 588   0.0000       2.287301        62.2406 
 589   0.0000       2.289714        62.3063 
 590   0.0000       2.290851        62.3372 
 591   0.0000       2.298863        62.5553 
 592   0.0000       2.301353        62.6230 
 593   0.0000       2.311931        62.9108 
 594   0.0000       2.315432        63.0061 
 595   0.0000       2.320087        63.1328 
 596   0.0000       2.324013        63.2396 
 597   0.0000       2.328711        63.3675 
 598   0.0000       2.332473        63.4698 
 599   0.0000       2.337815        63.6152 
 600   0.0000       2.340254        63.6815 
 601   0.0000       2.347827        63.8876 
 602   0.0000       2.352544        64.0160 
 603   0.0000       2.354522        64.0698 
 604   0.0000       2.359837        64.2144 
 605   0.0000       2.363236        64.3069 
 606   0.0000       2.366293        64.3901 
 607   0.0000       2.369147        64.4678 
 608   0.0000       2.377042        64.6826 
 609   0.0000       2.380039        64.7642 
 610   0.0000       2.387091        64.9561 
 611   0.0000       2.396917        65.2234 
 612   0.0000       2.398511        65.2668 
 613   0.0000       2.402130        65.3653 
 614   0.0000       2.404437        65.4280 
 615   0.0000       2.408965        65.5513 
 616   0.0000       2.416318        65.7513 
 617   0.0000       2.422131        65.9095 
 618   0.0000       2.426058        66.0164 
 619   0.0000       2.431537        66.1655 
 620   0.0000       2.438995        66.3684 
 621   0.0000       2.441145        66.4269 
 622   0.0000       2.444372        66.5148 
 623   0.0000       2.452477        66.7353 
 624   0.0000       2.454436        66.7886 
 625   0.0000       2.459492        66.9262 
 626   0.0000       2.461004        66.9673 
 627   0.0000       2.464067        67.0507 
 628   0.0000       2.470656        67.2300 
 629   0.0000       2.478141        67.4336 
 630   0.0000       2.483254        67.5728 
 631   0.0000       2.485671        67.6385 
 632   0.0000       2.490712        67.7757 
 633   0.0000       2.494162        67.8696 
 634   0.0000       2.497803        67.9687 
 635   0.0000       2.500806        68.0504 
 636   0.0000       2.503551        68.1251 
 637   0.0000       2.508969        68.2725 
 638   0.0000       2.511065        68.3295 
 639   0.0000       2.517863        68.5145 
 640   0.0000       2.521139        68.6037 
 641   0.0000       2.527057        68.7647 
 642   0.0000       2.528599        68.8067 
 643   0.0000       2.534971        68.9801 
 644   0.0000       2.539640        69.1071 
 645   0.0000       2.545480        69.2660 
 646   0.0000       2.549337        69.3710 
 647   0.0000       2.555930        69.5504 
 648   0.0000       2.559632        69.6511 
 649   0.0000       2.567410        69.8628 
 650   0.0000       2.572732        70.0076 
 651   0.0000       2.578074        70.1530 
 652   0.0000       2.579480        70.1912 
 653   0.0000       2.583321        70.2957 
 654   0.0000       2.587972        70.4223 
 655   0.0000       2.592737        70.5520 
 656   0.0000       2.596639        70.6581 
 657   0.0000       2.601354        70.7864 
 658   0.0000       2.603453        70.8436 
 659   0.0000       2.609685        71.0131 
 660   0.0000       2.612916        71.1011 
 661   0.0000       2.614731        71.1504 
 662   0.0000       2.620560        71.3090 
 663   0.0000       2.622703        71.3674 
 664   0.0000       2.628619        71.5283 
 665   0.0000       2.634720        71.6944 
 666   0.0000       2.638074        71.7856 
 667   0.0000       2.640858        71.8614 
 668   0.0000       2.644825        71.9693 
 669   0.0000       2.650447        72.1223 
 670   0.0000       2.654791        72.2405 
 671   0.0000       2.658287        72.3357 
 672   0.0000       2.663017        72.4644 
 673   0.0000       2.668867        72.6236 
 674   0.0000       2.671715        72.7011 
 675   0.0000       2.677780        72.8661 
 676   0.0000       2.681946        72.9795 
 677   0.0000       2.692319        73.2617 
 678   0.0000       2.694450        73.3197 
 679   0.0000       2.698256        73.4233 
 680   0.0000       2.706222        73.6400 
 681   0.0000       2.713653        73.8422 
 682   0.0000       2.715072        73.8809 
 683   0.0000       2.723612        74.1133 
 684   0.0000       2.725068        74.1529 
 685   0.0000       2.731499        74.3279 
 686   0.0000       2.740741        74.5794 
 687   0.0000       2.744363        74.6779 
 688   0.0000       2.745777        74.7164 
 689   0.0000       2.749765        74.8249 
 690   0.0000       2.752661        74.9037 
 691   0.0000       2.761059        75.1322 
 692   0.0000       2.769491        75.3617 
 693   0.0000       2.777085        75.5683 
 694   0.0000       2.777418        75.5774 
 695   0.0000       2.779492        75.6338 
 696   0.0000       2.785284        75.7914 
 697   0.0000       2.795470        76.0686 
 698   0.0000       2.796972        76.1095 
 699   0.0000       2.799445        76.1768 
 700   0.0000       2.805070        76.3298 
 701   0.0000       2.808237        76.4160 
 702   0.0000       2.812470        76.5312 
 703   0.0000       2.813934        76.5710 
 704   0.0000       2.821403        76.7743 
 705   0.0000       2.826503        76.9131 
 706   0.0000       2.830780        77.0295 
 707   0.0000       2.833281        77.0975 
 708   0.0000       2.842250        77.3415 
 709   0.0000       2.847096        77.4734 
 710   0.0000       2.852516        77.6209 
 711   0.0000       2.854919        77.6863 
 712   0.0000       2.857761        77.7636 
 713   0.0000       2.861017        77.8522 
 714   0.0000       2.868225        78.0484 
 715   0.0000       2.870737        78.1167 
 716   0.0000       2.880205        78.3744 
 717   0.0000       2.881975        78.4225 
 718   0.0000       2.885064        78.5066 
 719   0.0000       2.887150        78.5634 
 720   0.0000       2.898736        78.8786 
 721   0.0000       2.904965        79.0481 
 722   0.0000       2.909144        79.1618 
 723   0.0000       2.920919        79.4822 
 724   0.0000       2.927527        79.6620 
 725   0.0000       2.934867        79.8618 
 726   0.0000       2.937152        79.9240 
 727   0.0000       2.942034        80.0568 
 728   0.0000       2.950794        80.2952 
 729   0.0000       2.953593        80.3714 
 730   0.0000       2.963891        80.6516 
 731   0.0000       2.971311        80.8535 
 732   0.0000       2.973476        80.9124 
 733   0.0000       2.982084        81.1466 
 734   0.0000       2.985855        81.2493 
 735   0.0000       2.995311        81.5066 
 736   0.0000       2.996275        81.5328 
 737   0.0000       3.006434        81.8092 
 738   0.0000       3.010860        81.9297 
 739   0.0000       3.016381        82.0799 
 740   0.0000       3.024860        82.3106 
 741   0.0000       3.032030        82.5057 
 742   0.0000       3.038543        82.6830 
 743   0.0000       3.039653        82.7132 
 744   0.0000       3.048451        82.9526 
 745   0.0000       3.052354        83.0588 
 746   0.0000       3.057537        83.1998 
 747   0.0000       3.069070        83.5136 
 748   0.0000       3.072915        83.6183 
 749   0.0000       3.074672        83.6661 
 750   0.0000       3.083230        83.8990 
 751   0.0000       3.092709        84.1569 
 752   0.0000       3.101432        84.3943 
 753   0.0000       3.102874        84.4335 
 754   0.0000       3.114499        84.7498 
 755   0.0000       3.125511        85.0495 
 756   0.0000       3.129454        85.1568 
 757   0.0000       3.132868        85.2497 
 758   0.0000       3.137234        85.3685 
 759   0.0000       3.147908        85.6589 
 760   0.0000       3.158618        85.9504 
 761   0.0000       3.163362        86.0795 
 762   0.0000       3.173714        86.3611 
 763   0.0000       3.178422        86.4893 
 764   0.0000       3.181735        86.5794 
 765   0.0000       3.206977        87.2663 
 766   0.0000       3.212434        87.4148 
 767   0.0000       3.214672        87.4757 
 768   0.0000       3.221457        87.6603 
 769   0.0000       3.225423        87.7682 
 770   0.0000       3.230610        87.9094 
 771   0.0000       3.243618        88.2633 
 772   0.0000       3.246729        88.3480 
 773   0.0000       3.258705        88.6739 
 774   0.0000       3.274658        89.1080 
 775   0.0000       3.280170        89.2580 
 776   0.0000       3.283164        89.3394 
 777   0.0000       3.300059        89.7992 
 778   0.0000       3.307639        90.0054 
 779   0.0000       3.315787        90.2272 
 780   0.0000       3.319927        90.3398 
 781   0.0000       3.322532        90.4107 
 782   0.0000       3.325074        90.4799 
 783   0.0000       3.337202        90.8099 
 784   0.0000       3.341406        90.9243 
 785   0.0000       3.348353        91.1133 
 786   0.0000       3.353875        91.2636 
 787   0.0000       3.362160        91.4890 
 788   0.0000       3.372642        91.7743 
 789   0.0000       3.376828        91.8881 
 790   0.0000       3.382155        92.0331 
 791   0.0000       3.387560        92.1802 
 792   0.0000       3.397327        92.4460 
 793   0.0000       3.402022        92.5737 
 794   0.0000       3.404464        92.6402 
 795   0.0000       3.408687        92.7551 
 796   0.0000       3.412290        92.8531 
 797   0.0000       3.419736        93.0558 
 798   0.0000       3.429692        93.3267 
 799   0.0000       3.430290        93.3429 
 800   0.0000       3.440660        93.6251 
 801   0.0000       3.452274        93.9412 
 802   0.0000       3.465205        94.2930 
[...]
      f+2     :     0.006135
      f-2     :     0.021315
      f+3     :     0.047251
      f-3     :     0.016785
      g0      :     0.000484  g :     0.011396
      g+1     :     0.001484
      g-1     :     0.000647
      g+2     :     0.001155
      g-2     :     0.001249
      g+3     :     0.000191
      g-3     :     0.000872
      g+4     :     0.003430
      g-4     :     0.001885
 24 H s       :     0.786182  s :     0.786182
      pz      :     0.052120  p :     0.187557
      px      :     0.082314
      py      :     0.053124
      dz2     :     0.004948  d :     0.064820
      dxz     :     0.016104
      dyz     :     0.004828
      dx2y2   :     0.021358
      dxy     :     0.017582
      f0      :     0.001025  f :     0.009580
      f+1     :     0.000852
      f-1     :     0.000435
      f+2     :     0.000578
      f-2     :     0.001303
      f+3     :     0.003420
      f-3     :     0.001968
 25 H s       :     0.788511  s :     0.788511
      pz      :     0.051211  p :     0.187699
      px      :     0.042613
      py      :     0.093874
      dz2     :     0.004790  d :     0.064057
      dxz     :     0.000373
      dyz     :     0.020006
      dx2y2   :     0.014396
      dxy     :     0.024492
      f0      :     0.001026  f :     0.009494
      f+1     :     0.000242
      f-1     :     0.001006
      f+2     :     0.001713
      f-2     :     0.000057
      f+3     :     0.003452
      f-3     :     0.001997
 26 H s       :     0.779767  s :     0.779767
      pz      :     0.055386  p :     0.197360
      px      :     0.085684
      py      :     0.056290
      dz2     :     0.005314  d :     0.066005
      dxz     :     0.015186
      dyz     :     0.006006
      dx2y2   :     0.022248
      dxy     :     0.017251
      f0      :     0.000993  f :     0.009647
      f+1     :     0.000902
      f-1     :     0.000466
      f+2     :     0.000496
      f-2     :     0.001438
      f+3     :     0.003400
      f-3     :     0.001951
 27 C s       :     2.620282  s :     2.620282
      pz      :     0.687186  p :     2.592987
      px      :     0.916846
      py      :     0.988955
      dz2     :     0.089584  d :     1.128658
      dxz     :     0.105681
      dyz     :     0.218503
      dx2y2   :     0.314734
      dxy     :     0.400156
      f0      :     0.019253  f :     0.349650
      f+1     :     0.014598
      f-1     :     0.026044
      f+2     :     0.034739
      f-2     :     0.047058
      f+3     :     0.126936
      f-3     :     0.081023
      g0      :     0.001612  g :     0.048424
      g+1     :     0.002689
      g-1     :     0.009163
      g+2     :     0.003661
      g-2     :     0.005523
      g+3     :     0.001746
      g-3     :     0.003087
      g+4     :     0.009824
      g-4     :     0.011118
 28 O s       :     3.258274  s :     3.258274
      pz      :     1.295038  p :     4.333049
      px      :     1.539415
      py      :     1.498597
      dz2     :     0.010466  d :     0.094868
      dxz     :     0.001156
      dyz     :     0.019360
      dx2y2   :     0.031544
      dxy     :     0.032342
      f0      :     0.001768  f :     0.020931
      f+1     :     0.000586
      f-1     :     0.002438
      f+2     :     0.003021
      f-2     :     0.000491
      f+3     :     0.006941
      f-3     :     0.005686
      g0      :     0.000052  g :     0.001156
      g+1     :     0.000006
      g-1     :     0.000154
      g+2     :     0.000114
      g-2     :     0.000074
      g+3     :     0.000032
      g-3     :     0.000089
      g+4     :     0.000333
      g-4     :     0.000303
 29 O s       :     3.092452  s :     3.092452
      pz      :     1.477179  p :     4.195757
      px      :     1.231774
      py      :     1.486804
      dz2     :     0.016849  d :     0.178275
      dxz     :     0.032604
      dyz     :     0.013455
      dx2y2   :     0.053745
      dxy     :     0.061622
      f0      :     0.002636  f :     0.027588
      f+1     :     0.002264
      f-1     :     0.001153
      f+2     :     0.001411
      f-2     :     0.004487
      f+3     :     0.008876
      f-3     :     0.006760
      g0      :     0.000051  g :     0.000913
      g+1     :     0.000127
      g-1     :     0.000055
      g+2     :     0.000081
      g-2     :     0.000117
      g+3     :     0.000044
      g-3     :     0.000082
      g+4     :     0.000157
      g-4     :     0.000199
 30 C s       :     2.578046  s :     2.578046
      pz      :     0.986065  p :     2.669699
      px      :     0.719280
      py      :     0.964355
      dz2     :     0.080022  d :     0.493367
      dxz     :     0.079767
      dyz     :     0.092513
      dx2y2   :     0.086406
      dxy     :     0.154659
      f0      :     0.014561  f :     0.142322
      f+1     :     0.017965
      f-1     :     0.011997
      f+2     :     0.020359
      f-2     :     0.011790
      f+3     :     0.033993
      f-3     :     0.031658
      g0      :     0.000661  g :     0.013039
      g+1     :     0.002098
      g-1     :     0.000243
      g+2     :     0.001130
      g-2     :     0.001075
      g+3     :     0.000483
      g-3     :     0.001450
      g+4     :     0.003319
      g-4     :     0.002581
 31 H s       :     0.802119  s :     0.802119
      pz      :     0.082385  p :     0.185859
      px      :     0.035862
      py      :     0.067612
      dz2     :     0.022808  d :     0.064072
      dxz     :     0.011130
      dyz     :     0.015976
      dx2y2   :     0.006747
      dxy     :     0.007411
      f0      :     0.002720  f :     0.009000
      f+1     :     0.000754
      f-1     :     0.001961
      f+2     :     0.001479
      f-2     :     0.001476
      f+3     :     0.000284
      f-3     :     0.000325
 32 H s       :     0.803498  s :     0.803498
      pz      :     0.055423  p :     0.187119
      px      :     0.053264
      py      :     0.078432
      dz2     :     0.004836  d :     0.064873
      dxz     :     0.007332
      dyz     :     0.019726
      dx2y2   :     0.019335
      dxy     :     0.013643
      f0      :     0.001346  f :     0.009169
      f+1     :     0.000600
      f-1     :     0.000754
      f+2     :     0.000490
      f-2     :     0.001854
      f+3     :     0.001960
      f-3     :     0.002167
 33 H s       :     0.802003  s :     0.802003
      pz      :     0.080836  p :     0.185976
      px      :     0.037776
      py      :     0.067364
      dz2     :     0.021733  d :     0.064090
      dxz     :     0.011086
      dyz     :     0.015719
      dx2y2   :     0.007849
      dxy     :     0.007702
      f0      :     0.002442  f :     0.009002
      f+1     :     0.000906
      f-1     :     0.001731
      f+2     :     0.001625
      f-2     :     0.001545
      f+3     :     0.000287
      f-3     :     0.000464
 34 O s       :     3.083989  s :     3.083989
      pz      :     1.527571  p :     4.205311
      px      :     1.405997
      py      :     1.271744
      dz2     :     0.015357  d :     0.184097
      dxz     :     0.021192
      dyz     :     0.031922
      dx2y2   :     0.056031
      dxy     :     0.059594
      f0      :     0.003211  f :     0.027965
      f+1     :     0.001516
      f-1     :     0.001717
      f+2     :     0.004482
      f-2     :     0.001923
      f+3     :     0.010958
      f-3     :     0.004160
      g0      :     0.000046  g :     0.000959
      g+1     :     0.000079
      g-1     :     0.000117
      g+2     :     0.000100
      g-2     :     0.000091
      g+3     :     0.000022
      g-3     :     0.000142
      g+4     :     0.000202
      g-4     :     0.000162
 35 C s       :     2.574090  s :     2.574090
      pz      :     0.980754  p :     2.671802
      px      :     0.983709
      py      :     0.707339
      dz2     :     0.078179  d :     0.517026
      dxz     :     0.052971
      dyz     :     0.138245
      dx2y2   :     0.147669
      dxy     :     0.099962
      f0      :     0.016554  f :     0.146258
      f+1     :     0.009437
      f-1     :     0.019880
      f+2     :     0.027646
      f-2     :     0.007071
      f+3     :     0.037596
      f-3     :     0.028074
      g0      :     0.000649  g :     0.013634
      g+1     :     0.000079
      g-1     :     0.002580
      g+2     :     0.001453
      g-2     :     0.000753
      g+3     :     0.000045
      g-3     :     0.002068
      g+4     :     0.002572
      g-4     :     0.003434
 36 H s       :     0.802649  s :     0.802649
      pz      :     0.055862  p :     0.186506
      px      :     0.091816
      py      :     0.038829
      dz2     :     0.005490  d :     0.065014
      dxz     :     0.025173
      dyz     :     0.001375
      dx2y2   :     0.016230
      dxy     :     0.016746
      f0      :     0.001228  f :     0.009175
      f+1     :     0.001264
      f-1     :     0.000245
      f+2     :     0.001916
      f-2     :     0.000417
      f+3     :     0.002143
      f-3     :     0.001964
 37 H s       :     0.801824  s :     0.801824
      pz      :     0.084082  p :     0.185743
      px      :     0.059623
      py      :     0.042038
      dz2     :     0.020885  d :     0.064127
      dxz     :     0.017245
      dyz     :     0.013281
      dx2y2   :     0.008217
      dxy     :     0.004499
      f0      :     0.002520  f :     0.008888
      f+1     :     0.001400
      f-1     :     0.001600
      f+2     :     0.001673
      f-2     :     0.001202
      f+3     :     0.000240
      f-3     :     0.000253
 38 H s       :     0.801727  s :     0.801727
      pz      :     0.078904  p :     0.185877
      px      :     0.067043
      py      :     0.039930
      dz2     :     0.022620  d :     0.064182
      dxz     :     0.012957
      dyz     :     0.011288
      dx2y2   :     0.011007
      dxy     :     0.006309
      f0      :     0.002336  f :     0.008894
      f+1     :     0.001486
      f-1     :     0.001022
      f+2     :     0.001683
      f-2     :     0.001449
      f+3     :     0.000562
      f-3     :     0.000355


                      *****************************
                      * MAYER POPULATION ANALYSIS *
                      *****************************

  NA   - Mulliken gross atomic population
  ZA   - Total nuclear charge
  QA   - Mulliken gross atomic charge
  VA   - Mayer's total valence
  BVA  - Mayer's bonded valence
  FA   - Mayer's free valence

  ATOM       NA         ZA         QA         VA         BVA        FA
  0 C      6.1204     6.0000    -0.1204     3.8189     3.8189     0.0000
  1 C      5.9428     6.0000     0.0572     3.7102     3.7102     0.0000
  2 C      6.1046     6.0000    -0.1046     3.7797     3.7797     0.0000
  3 C      6.0912     6.0000    -0.0912     3.7886     3.7886    -0.0000
  4 C      5.9244     6.0000     0.0756     3.7233     3.7233     0.0000
  5 C      6.1116     6.0000    -0.1116     3.8323     3.8323     0.0000
  6 H      0.8741     1.0000     0.1259     0.9991     0.9991     0.0000
  7 H      0.8685     1.0000     0.1315     0.9940     0.9940     0.0000
  8 H      0.8719     1.0000     0.1281     0.9977     0.9977     0.0000
  9 H      0.8771     1.0000     0.1229     0.9915     0.9915    -0.0000
 10 C      5.7538     6.0000     0.2462     3.7721     3.7721     0.0000
 11 C      6.2259     6.0000    -0.2259     3.7756     3.7756    -0.0000
 12 O      8.3936     8.0000    -0.3936     2.1571     2.1571     0.0000
 13 C      5.7789     6.0000     0.2211     3.8940     3.8940    -0.0000
 14 C      5.9677     6.0000     0.0323     3.7323     3.7323    -0.0000
 15 H      0.8978     1.0000     0.1022     1.0192     1.0192    -0.0000
 16 H      0.7290     1.0000     0.2710     1.0863     1.0863     0.0000
 17 O      8.4615     8.0000    -0.4615     2.0595     2.0595    -0.0000
 18 C      6.1040     6.0000    -0.1040     3.8160     3.8160    -0.0000
 19 C      6.0428     6.0000    -0.0428     3.6713     3.6713     0.0000
 20 C      5.8932     6.0000     0.1068     3.9440     3.9440    -0.0000
 21 C      6.0683     6.0000    -0.0683     3.7939     3.7939    -0.0000
 22 H      0.8987     1.0000     0.1013     1.0330     1.0330     0.0000
 23 C      6.1653     6.0000    -0.1653     3.8996     3.8996     0.0000
 24 H      0.8694     1.0000     0.1306     0.9881     0.9881    -0.0000
 25 H      0.8671     1.0000     0.1329     0.9810     0.9810     0.0000
 26 H      0.8834     1.0000     0.1166     0.9938     0.9938    -0.0000
 27 C      5.6419     6.0000     0.3581     4.1579     4.1579     0.0000
 28 O      8.4220     8.0000    -0.4220     2.1101     2.1101     0.0000
 29 O      8.3480     8.0000    -0.3480     2.1576     2.1576     0.0000
 30 C      6.0834     6.0000    -0.0834     3.7943     3.7943    -0.0000
 31 H      0.8728     1.0000     0.1272     0.9858     0.9858    -0.0000
 32 H      0.8739     1.0000     0.1261     0.9843     0.9843    -0.0000
 33 H      0.8724     1.0000     0.1276     0.9855     0.9855    -0.0000
 34 O      8.3693     8.0000    -0.3693     2.0746     2.0746    -0.0000
 35 C      6.0826     6.0000    -0.0826     3.8134     3.8134     0.0000
 36 H      0.8686     1.0000     0.1314     0.9806     0.9806     0.0000
 37 H      0.8885     1.0000     0.1115     0.9838     0.9838     0.0000
 38 H      0.8896     1.0000     0.1104     0.9844     0.9844     0.0000

  Mayer bond orders larger than 0.100000
B(  0-C ,  1-C ) :   1.2965 B(  0-C ,  5-C ) :   1.3874 B(  0-C ,  7-H ) :   0.9474 
B(  1-C ,  2-C ) :   1.2858 B(  1-C , 27-C ) :   1.0185 B(  2-C ,  3-C ) :   1.3911 
B(  2-C ,  8-H ) :   0.9448 B(  3-C ,  4-C ) :   1.2755 B(  3-C ,  9-H ) :   0.9522 
B(  4-C ,  5-C ) :   1.2897 B(  4-C , 10-C ) :   1.0243 B(  5-C ,  6-H ) :   0.9497 
B( 10-C , 11-C ) :   1.4176 B( 10-C , 12-O ) :   1.2355 B( 11-C , 13-C ) :   1.2012 
B( 11-C , 15-H ) :   0.9551 B( 12-O , 16-H ) :   0.7725 B( 13-C , 14-C ) :   1.0126 
B( 13-C , 17-O ) :   1.5859 B( 14-C , 18-C ) :   1.3295 B( 14-C , 19-C ) :   1.2566 
B( 16-H , 17-O ) :   0.2729 B( 18-C , 23-C ) :   1.3746 B( 18-C , 26-H ) :   0.9509 
B( 19-C , 20-C ) :   1.3400 B( 19-C , 22-H ) :   0.9517 B( 20-C , 21-C ) :   1.3154 
B( 20-C , 34-O ) :   1.1161 B( 21-C , 23-C ) :   1.4080 B( 21-C , 24-H ) :   0.9388 
B( 23-C , 25-H ) :   0.9497 B( 27-C , 28-O ) :   1.8997 B( 27-C , 29-O ) :   1.2031 
B( 29-O , 30-C ) :   0.8479 B( 30-C , 31-H ) :   0.9627 B( 30-C , 32-H ) :   0.9627 
B( 30-C , 33-H ) :   0.9626 B( 34-O , 35-C ) :   0.8945 B( 35-C , 36-H ) :   0.9681 
B( 35-C , 37-H ) :   0.9606 B( 35-C , 38-H ) :   0.9605 

-------
TIMINGS
-------

Total SCF time: 0 days 0 hours 31 min 59 sec 

Total time                  ....    1919.771 sec
Sum of individual times     ....    1900.470 sec  ( 99.0%)

Fock matrix formation       ....    1818.839 sec  ( 94.7%)
  XC integration            ....     244.895 sec  ( 13.5% of F)
    Basis function eval.    ....      17.714 sec  (  7.2% of XC)
    Density eval.           ....     109.476 sec  ( 44.7% of XC)
    XC-Functional eval.     ....       2.602 sec  (  1.1% of XC)
    XC-Potential eval.      ....     101.953 sec  ( 41.6% of XC)
Diagonalization             ....      23.103 sec  (  1.2%)
Density matrix formation    ....       1.646 sec  (  0.1%)
Population analysis         ....       5.402 sec  (  0.3%)
Initial guess               ....       9.766 sec  (  0.5%)
Orbital Transformation      ....       0.000 sec  (  0.0%)
Orbital Orthonormalization  ....       0.000 sec  (  0.0%)
DIIS solution               ....      14.419 sec  (  0.8%)
SOSCF solution              ....      18.123 sec  (  0.9%)
Grid generation             ....       9.172 sec  (  0.5%)

Maximum memory used throughout the entire SCF-calculation: 875.9 MB


-------------------------------------------------------------------------------
                          DFT DISPERSION CORRECTION                            
                                                                               
                              DFTD3 V3.1  Rev 1                                
                          USING Becke-Johnson damping                          
-------------------------------------------------------------------------------
The PW6B95 functional is recognized
Active option DFTDOPT                   ...         4   

molecular C6(AA) [au] = 17769.249924 


            DFT-D V3
 parameters
 s6 scaling factor         :     1.0000 
 a1 scaling factor         :     0.2076 
 s8 scaling factor         :     0.7257 
 a2 scaling factor         :     6.3750 
 ad hoc parameters k1-k3   :    16.0000     1.3333    -4.0000 

 Edisp/kcal,au: -15.170192900962  -0.024175238637 
 E6   /kcal   : -11.561138603 
 E8   /kcal   :  -3.609054298 
 % E8         :  23.790431151 

-------------------------   ----------------
Dispersion correction           -0.024175239
-------------------------   ----------------


-------------------------   --------------------
FINAL SINGLE POINT ENERGY     -1073.526266862905
-------------------------   --------------------


                            ***************************************
                            *     ORCA property calculations      *
                            ***************************************

                                    ---------------------
                                    Active property flags
                                    ---------------------
   (+) Dipole Moment


------------------------------------------------------------------------------
                       ORCA ELECTRIC PROPERTIES CALCULATION
------------------------------------------------------------------------------

Dipole Moment Calculation                       ... on
Quadrupole Moment Calculation                   ... off
Polarizability Calculation                      ... off
GBWName                                         ... Aldol_Cry_sp.gbw
Electron density                                ... Aldol_Cry_sp.scfp
The origin for moment calculation is the CENTER OF MASS  = ( 0.722148,  1.251755  0.068184)

-------------
DIPOLE MOMENT
-------------
                                X             Y             Z
Electronic contribution:     -3.27384      -0.46370       1.12324
Nuclear contribution   :      3.14937       0.30154      -1.40745
                        -----------------------------------------
Total Dipole Moment    :     -0.12448      -0.16217      -0.28421
                        -----------------------------------------
Magnitude (a.u.)       :      0.35010
Magnitude (Debye)      :      0.88987



--------------------
Rotational spectrum 
--------------------
 
Rotational constants in cm-1:     0.030729     0.002482     0.002307 
Rotational constants in MHz :   921.223726    74.415475    69.159663 

 Dipole components along the rotational axes: 
x,y,z [a.u.] :    -0.140354    -0.161449    -0.277131 
x,y,z [Debye]:    -0.356751    -0.410371    -0.704411 

 

Timings for individual modules:

Sum of individual times         ...     1932.028 sec (=  32.200 min)
GTO integral calculation        ...       11.526 sec (=   0.192 min)   0.6 %
SCF iterations                  ...     1920.502 sec (=  32.008 min)  99.4 %
                             ****ORCA TERMINATED NORMALLY****
TOTAL RUN TIME: 0 days 0 hours 32 minutes 17 seconds 499 msec
‘Aldol_Cry.hess’ -> ‘/home/rothe/Calc/Li_Path/THF/Aldol_Cry/Aldol_Cry.hess’
‘Aldol_Cry.opt’ -> ‘/home/rothe/Calc/Li_Path/THF/Aldol_Cry/Aldol_Cry.opt’
‘Aldol_Cry_sp.cpcm’ -> ‘/home/rothe/Calc/Li_Path/THF/Aldol_Cry/Aldol_Cry_sp.cpcm’
‘Aldol_Cry_sp.densities’ -> ‘/home/rothe/Calc/Li_Path/THF/Aldol_Cry/Aldol_Cry_sp.densities’
‘Aldol_Cry_sp.gbw’ -> ‘/home/rothe/Calc/Li_Path/THF/Aldol_Cry/Aldol_Cry_sp.gbw’
‘Aldol_Cry_sp.job’ -> ‘/home/rothe/Calc/Li_Path/THF/Aldol_Cry/Aldol_Cry_sp.job’
‘Aldol_Cry_sp_property.txt’ -> ‘/home/rothe/Calc/Li_Path/THF/Aldol_Cry/Aldol_Cry_sp_property.txt’
