! Job execution by suborca V 5.02 !
Job started from clu.thch.uni-bonn.de, running /software/cluster/orca_5_0_2_linux_x86-64_openmpi411/orca from /software/cluster/orca_5_0_2_linux_x86-64_openmpi411 on boar233 in /tmp1/rothe/Aldol_Cry__2oGsBe
Going to copy the following really necessary files:  

                                 *****************
                                 * O   R   C   A *
                                 *****************

                                            #,                                       
                                            ###                                      
                                            ####                                     
                                            #####                                    
                                            ######                                   
                                           ########,                                 
                                     ,,################,,,,,                         
                               ,,#################################,,                 
                          ,,##########################################,,             
                       ,#########################################, ''#####,          
                    ,#############################################,,   '####,        
                  ,##################################################,,,,####,       
                ,###########''''           ''''###############################       
              ,#####''   ,,,,##########,,,,          '''####'''          '####       
            ,##' ,,,,###########################,,,                        '##       
           ' ,,###''''                  '''############,,,                           
         ,,##''                                '''############,,,,        ,,,,,,###''
      ,#''                                            '''#######################'''  
     '                                                          ''''####''''         
             ,#######,   #######,   ,#######,      ##                                
            ,#'     '#,  ##    ##  ,#'     '#,    #''#        ######   ,####,        
            ##       ##  ##   ,#'  ##            #'  '#       #        #'  '#        
            ##       ##  #######   ##           ,######,      #####,   #    #        
            '#,     ,#'  ##    ##  '#,     ,#' ,#      #,         ##   #,  ,#        
             '#######'   ##     ##  '#######'  #'      '#     #####' # '####'        



                  #######################################################
                  #                        -***-                        #
                  #          Department of theory and spectroscopy      #
                  #    Directorship and core code : Frank Neese         #
                  #        Max Planck Institute fuer Kohlenforschung    #
                  #                Kaiser Wilhelm Platz 1               #
                  #                 D-45470 Muelheim/Ruhr               #
                  #                      Germany                        #
                  #                                                     #
                  #                  All rights reserved                #
                  #                        -***-                        #
                  #######################################################


                         Program Version 5.0.2 -  RELEASE  -


 With contributions from (in alphabetic order):
   Daniel Aravena         : Magnetic Suceptibility
   Michael Atanasov       : Ab Initio Ligand Field Theory (pilot matlab implementation)
   Alexander A. Auer      : GIAO ZORA, VPT2 properties, NMR spectrum
   Ute Becker             : Parallelization
   Giovanni Bistoni       : ED, misc. LED, open-shell LED, HFLD
   Martin Brehm           : Molecular dynamics
   Dmytro Bykov           : SCF Hessian
   Vijay G. Chilkuri      : MRCI spin determinant printing, contributions to CSF-ICE
   Dipayan Datta          : RHF DLPNO-CCSD density
   Achintya Kumar Dutta   : EOM-CC, STEOM-CC
   Dmitry Ganyushin       : Spin-Orbit,Spin-Spin,Magnetic field MRCI
   Miquel Garcia          : C-PCM and meta-GGA Hessian, CC/C-PCM, Gaussian charge scheme
   Yang Guo               : DLPNO-NEVPT2, F12-NEVPT2, CIM, IAO-localization
   Andreas Hansen         : Spin unrestricted coupled pair/coupled cluster methods
   Benjamin Helmich-Paris : MC-RPA, TRAH-SCF, COSX integrals
   Lee Huntington         : MR-EOM, pCC
   Robert Izsak           : Overlap fitted RIJCOSX, COSX-SCS-MP3, EOM
   Marcus Kettner         : VPT2
   Christian Kollmar      : KDIIS, OOCD, Brueckner-CCSD(T), CCSD density, CASPT2, CASPT2-K
   Simone Kossmann        : Meta GGA functionals, TD-DFT gradient, OOMP2, MP2 Hessian
   Martin Krupicka        : Initial AUTO-CI
   Lucas Lang             : DCDCAS
   Marvin Lechner         : AUTO-CI (C++ implementation), FIC-MRCC
   Dagmar Lenk            : GEPOL surface, SMD
   Dimitrios Liakos       : Extrapolation schemes; Compound Job, initial MDCI parallelization
   Dimitrios Manganas     : Further ROCIS development; embedding schemes
   Dimitrios Pantazis     : SARC Basis sets
   Anastasios Papadopoulos: AUTO-CI, single reference methods and gradients
   Taras Petrenko         : DFT Hessian,TD-DFT gradient, ASA, ECA, R-Raman, ABS, FL, XAS/XES, NRVS
   Peter Pinski           : DLPNO-MP2, DLPNO-MP2 Gradient
   Christoph Reimann      : Effective Core Potentials
   Marius Retegan         : Local ZFS, SOC
   Christoph Riplinger    : Optimizer, TS searches, QM/MM, DLPNO-CCSD(T), (RO)-DLPNO pert. Triples
   Tobias Risthaus        : Range-separated hybrids, TD-DFT gradient, RPA, STAB
   Michael Roemelt        : Original ROCIS implementation
   Masaaki Saitow         : Open-shell DLPNO-CCSD energy and density
   Barbara Sandhoefer     : DKH picture change effects
   Avijit Sen             : IP-ROCIS
   Kantharuban Sivalingam : CASSCF convergence, NEVPT2, FIC-MRCI
   Bernardo de Souza      : ESD, SOC TD-DFT
   Georgi Stoychev        : AutoAux, RI-MP2 NMR, DLPNO-MP2 response
   Willem Van den Heuvel  : Paramagnetic NMR
   Boris Wezisla          : Elementary symmetry handling
   Frank Wennmohs         : Technical directorship


 We gratefully acknowledge several colleagues who have allowed us to
 interface, adapt or use parts of their codes:
   Stefan Grimme, W. Hujo, H. Kruse, P. Pracht,  : VdW corrections, initial TS optimization,
                  C. Bannwarth, S. Ehlert          DFT functionals, gCP, sTDA/sTD-DF
   Ed Valeev, F. Pavosevic, A. Kumar             : LibInt (2-el integral package), F12 methods
   Garnet Chan, S. Sharma, J. Yang, R. Olivares  : DMRG
   Ulf Ekstrom                                   : XCFun DFT Library
   Mihaly Kallay                                 : mrcc  (arbitrary order and MRCC methods)
   Jiri Pittner, Ondrej Demel                    : Mk-CCSD
   Frank Weinhold                                : gennbo (NPA and NBO analysis)
   Christopher J. Cramer and Donald G. Truhlar   : smd solvation model
   Lars Goerigk                                  : TD-DFT with DH, B97 family of functionals
   V. Asgeirsson, H. Jonsson                     : NEB implementation
   FAccTs GmbH                                   : IRC, NEB, NEB-TS, DLPNO-Multilevel, CI-OPT
                                                   MM, QMMM, 2- and 3-layer-ONIOM, Crystal-QMMM,
                                                   LR-CPCM, SF, NACMEs, symmetry and pop. for TD-DFT,
                                                   nearIR, NL-DFT gradient (VV10), updates on ESD,
                                                   ML-optimized integration grids
   S Lehtola, MJT Oliveira, MAL Marques          : LibXC Library
   Liviu Ungur et al                             : ANISO software


 Your calculation uses the libint2 library for the computation of 2-el integrals
 For citations please refer to: http://libint.valeyev.net

 Your ORCA version has been built with support for libXC version: 5.1.0
 For citations please refer to: https://tddft.org/programs/libxc/

 This ORCA versions uses:
   CBLAS   interface :  Fast vector & matrix operations
   LAPACKE interface :  Fast linear algebra routines
   SCALAPACK package :  Parallel linear algebra routines
   Shared memory     :  Shared parallel matrices
   BLAS/LAPACK       :  OpenBLAS 0.3.15  USE64BITINT DYNAMIC_ARCH NO_AFFINITY Barcelona SINGLE_THREADED
        Core in use  :  Barcelona
   Copyright (c) 2011-2014, The OpenBLAS Project


Your calculation utilizes the atom-pairwise dispersion correction
with the Becke-Johnson damping scheme (D3BJ)
Cite in your paper:
S.Grimme, S.Ehrlich, L.Goerigk, J Comput Chem, (2011), 32, 1456–1465 
S.Grimme, J.Antony, S.Ehrlich and H.Krieg, J.Chem.Phys., 132, (2010), 154104 
   

================================================================================

----- Orbital basis set information -----
Your calculation utilizes the basis: def2-TZVP
   F. Weigend and R. Ahlrichs, Phys. Chem. Chem. Phys. 7, 3297 (2005).

----- AuxJ basis set information -----
Your calculation utilizes the auxiliary basis: def2/J
   F. Weigend, Phys. Chem. Chem. Phys. 8, 1057 (2006).

================================================================================
                                        WARNINGS
                       Please study these warnings very carefully!
================================================================================


WARNING: Geometry Optimization
  ===> : Switching off AutoStart
         For restart on a previous wavefunction, please use MOREAD

INFO   : the flag for use of the SHARK integral package has been found!

================================================================================
                                       INPUT FILE
================================================================================
NAME = Aldol_Cry.inp
|  1> ! TPSS D3BJ def2-TZVP RI def2/J CPCM(THF)
|  2> ! Opt numfreq Pal4
|  3> 
|  4> * xyz 0 1
|  5> C        -3.73241239236612    1.36171476055349   -0.07853698919956
|  6> C        -3.92582414540343   -0.01803246669365   -0.03905576916665
|  7> C        -2.81972509364954   -0.86537484892012    0.02508240192226
|  8> C        -1.54209423405408   -0.34808919097129    0.05999237677056
|  9> C        -1.33954595432711    1.03376920069212    0.02590235886537
| 10> C        -2.45304934126072    1.87653425230700   -0.04873963018070
| 11> H        -2.29596754896243    2.94323071929863   -0.07737617105221
| 12> H        -4.58535970757819    2.01904005852678   -0.13011596253373
| 13> H        -2.98806134814568   -1.93111910522161    0.05692203459789
| 14> H        -0.70715792070665   -1.02431141815305    0.13689699041920
| 15> C        -0.00101450575256    1.64158643643218    0.10341859421401
| 16> C         1.15863722727974    0.92951815761154   -0.04856699041970
| 17> O         0.00131821775121    2.94335341847041    0.35014255391799
| 18> C         2.44648246401535    1.55076658384066    0.10766688613252
| 19> C         3.67097373202286    0.71465526424652    0.04266042127313
| 20> H         1.11258639430153   -0.11257012421165   -0.29433549050833
| 21> H         0.95559922408192    3.24514239655340    0.38911835192522
| 22> O         2.55514578546289    2.77565958371431    0.30984159496986
| 23> C         3.66433627577799   -0.67669773080203    0.09273722632091
| 24> C         4.89029368194806    1.39296824677211   -0.03382913881302
| 25> C         6.08913418258696    0.69714147371838   -0.06428298308216
| 26> C         6.06603291924423   -0.70002424124734   -0.02294158534977
| 27> H         4.85945340272171    2.47102644132399   -0.06283756315786
| 28> C         4.86285041583242   -1.37056711493184    0.05838156129829
| 29> H         7.00472619000887   -1.23026788911260   -0.04798830918486
| 30> H         4.85738649322227   -2.44896936865473    0.09934862238593
| 31> H         2.74403121740821   -1.22874376121794    0.18185813716194
| 32> C        -5.27788729444493   -0.62298684385964   -0.04316044193192
| 33> O        -5.48818139991977   -1.81765208011006   -0.02256816023445
| 34> O        -6.25539364531448    0.28644730050672   -0.06425782179641
| 35> C        -7.59210609758124   -0.20955643455524   -0.05242516090353
| 36> H        -7.76820274882489   -0.83883755966907   -0.92682133363852
| 37> H        -8.23391514028727    0.66692413385318   -0.06969240035765
| 38> H        -7.76547420476120   -0.80112882844030    0.84858618045725
| 39> O         7.32101633013075    1.26935728696491   -0.13195688825524
| 40> C         7.41528124535232    2.67971640504820   -0.15268580278655
| 41> H         8.48103950052084    2.89721974795541   -0.19121190991730
| 42> H         6.98334842923441    3.12021782700979    0.75056379350390
| 43> H         6.92373369633544    3.09821147197269   -1.03573363696760
| 44> *
| 45> 
| 46>                          ****END OF INPUT****
================================================================================

                       *****************************
                       * Geometry Optimization Run *
                       *****************************

Geometry optimization settings:
Update method            Update   .... BFGS
Choice of coordinates    CoordSys .... Z-matrix Internals
Initial Hessian          InHess   .... Almoef's Model

Convergence Tolerances:
Energy Change            TolE     ....  5.0000e-06 Eh
Max. Gradient            TolMAXG  ....  3.0000e-04 Eh/bohr
RMS Gradient             TolRMSG  ....  1.0000e-04 Eh/bohr
Max. Displacement        TolMAXD  ....  4.0000e-03 bohr
RMS Displacement         TolRMSD  ....  2.0000e-03 bohr
Strict Convergence                ....  False
------------------------------------------------------------------------------
                        ORCA OPTIMIZATION COORDINATE SETUP
------------------------------------------------------------------------------

The optimization will be done in new redundant internal coordinates
Making redundant internal coordinates   ...  (new redundants) done
Evaluating the initial hessian          ...  (Almloef) done
Evaluating the coordinates              ...  done
Calculating the B-matrix                .... done
Calculating the G-matrix                .... done
Diagonalizing the G-matrix              .... done
Small eigenvalue found = 1.116e-03
Small eigenvalue found = 4.882e-03
Small eigenvalue found = 7.544e-03
Small eigenvalue found = 1.054e-02
Small eigenvalue found = 1.459e-02
Small eigenvalue found = 2.832e-02
The first mode is                       ....   72
The number of degrees of freedom        ....  111

    -----------------------------------------------------------------
                    Redundant Internal Coordinates


    -----------------------------------------------------------------
         Definition                    Initial Value    Approx d2E/dq
    -----------------------------------------------------------------
      1. B(C   1,C   0)                  1.3938         0.616142   
      2. B(C   2,C   1)                  1.3948         0.613802   
      3. B(C   3,C   2)                  1.3788         0.650993   
      4. B(C   4,C   3)                  1.3970         0.608845   
      5. B(C   5,C   4)                  1.3985         0.605658   
      6. B(C   5,C   0)                  1.3794         0.649647   
      7. B(H   6,C   5)                  1.0786         0.375528   
      8. B(H   7,C   0)                  1.0781         0.376219   
      9. B(H   8,C   2)                  1.0794         0.374363   
     10. B(H   9,C   3)                  1.0772         0.377470   
     11. B(C  10,C   4)                  1.4721         0.462096   
     12. B(C  11,C  10)                  1.3693         0.674206   
     13. B(O  12,C  10)                  1.3249         0.710671   
     14. B(C  13,C  11)                  1.4384         0.523082   
     15. B(C  14,C  13)                  1.4841         0.442116   
     16. B(H  15,C  11)                  1.0717         0.385187   
     17. B(H  16,O  12)                  1.0016         0.446232   
     18. B(O  17,C  13)                  1.2462         0.949029   
     19. B(C  18,C  14)                  1.3923         0.619609   
     20. B(C  19,C  14)                  1.3974         0.608061   
     21. B(C  20,C  19)                  1.3865         0.632933   
     22. B(C  21,C  20)                  1.3980         0.606773   
     23. B(H  22,C  19)                  1.0789         0.375102   
     24. B(C  23,C  21)                  1.3798         0.648617   
     25. B(C  23,C  18)                  1.3853         0.635665   
     26. B(H  24,C  21)                  1.0784         0.375787   
     27. B(H  25,C  23)                  1.0792         0.374683   
     28. B(H  26,C  18)                  1.0769         0.377889   
     29. B(C  27,C   1)                  1.4812         0.446865   
     30. B(O  28,C  27)                  1.2132         1.071363   
     31. B(O  29,C  27)                  1.3353         0.684134   
     32. B(C  30,O  29)                  1.4258         0.490601   
     33. B(H  31,C  30)                  1.0916         0.358000   
     34. B(H  32,C  30)                  1.0865         0.364789   
     35. B(H  33,C  30)                  1.0917         0.357842   
     36. B(O  34,C  20)                  1.3600         0.624843   
     37. B(C  35,O  34)                  1.4137         0.513016   
     38. B(H  36,C  35)                  1.0884         0.362212   
     39. B(H  37,C  35)                  1.0938         0.355067   
     40. B(H  38,C  35)                  1.0939         0.355029   
     41. A(C   1,C   0,H   7)          119.6790         0.355161   
     42. A(C   1,C   0,C   5)          119.8383         0.437241   
     43. A(C   5,C   0,H   7)          120.4826         0.358371   
     44. A(C   0,C   1,C  27)          122.0650         0.408963   
     45. A(C   0,C   1,C   2)          119.5132         0.432796   
     46. A(C   2,C   1,C  27)          118.4157         0.408688   
     47. A(C   3,C   2,H   8)          120.9419         0.358195   
     48. A(C   1,C   2,C   3)          120.5345         0.437104   
     49. A(C   1,C   2,H   8)          118.5206         0.354635   
     50. A(C   4,C   3,H   9)          120.6847         0.354644   
     51. A(C   2,C   3,C   4)          120.3190         0.436466   
     52. A(C   2,C   3,H   9)          118.9810         0.358699   
     53. A(C   3,C   4,C  10)          122.6118         0.410531   
     54. A(C   3,C   4,C   5)          118.8127         0.430835   
     55. A(C   5,C   4,C  10)          118.5529         0.410150   
     56. A(C   0,C   5,C   4)          120.9794         0.435891   
     57. A(C   0,C   5,H   6)          120.2395         0.358258   
     58. A(C   4,C   5,H   6)          118.7802         0.354019   
     59. A(C  11,C  10,O  12)          122.0130         0.448724   
     60. A(C   4,C  10,O  12)          114.6498         0.419245   
     61. A(C   4,C  10,C  11)          123.3325         0.418039   
     62. A(C  13,C  11,H  15)          118.9061         0.346849   
     63. A(C  10,C  11,H  15)          119.6526         0.362095   
     64. A(C  10,C  11,C  13)          121.4406         0.427402   
     65. A(C  10,O  12,H  16)          107.7553         0.369074   
     66. A(C  14,C  13,O  17)          119.2677         0.438078   
     67. A(C  11,C  13,O  17)          121.3466         0.451620   
     68. A(C  11,C  13,C  14)          119.3818         0.396577   
     69. A(C  18,C  14,C  19)          119.4210         0.432502   
     70. A(C  13,C  14,C  19)          116.6696         0.407238   
     71. A(C  13,C  14,C  18)          123.8819         0.408596   
     72. A(C  23,C  18,H  26)          118.9901         0.357316   
     73. A(C  14,C  18,H  26)          121.2887         0.355767   
     74. A(C  14,C  18,C  23)          119.7048         0.435971   
     75. A(C  14,C  19,C  20)          120.8018         0.434160   
     76. A(C  20,C  19,H  22)          121.7090         0.356606   
     77. A(C  14,C  19,H  22)          117.4884         0.354189   
     78. A(C  19,C  20,C  21)          119.1200         0.433994   
     79. A(C  21,C  20,O  34)          115.9095         0.430161   
     80. A(C  19,C  20,O  34)          124.9704         0.433436   
     81. A(C  23,C  21,H  24)          121.4294         0.358204   
     82. A(C  20,C  21,H  24)          118.4470         0.354171   
     83. A(C  20,C  21,C  23)          120.1218         0.435911   
     84. A(C  21,C  23,H  25)          119.4893         0.358024   
     85. A(C  18,C  23,H  25)          119.6822         0.356799   
     86. A(C  18,C  23,C  21)          120.8281         0.439583   
     87. A(O  28,C  27,O  29)          122.9589         0.481795   
     88. A(C   1,C  27,O  29)          112.9605         0.413938   
     89. A(C   1,C  27,O  28)          124.0796         0.448659   
     90. A(C  27,O  29,C  30)          116.6951         0.418148   
     91. A(H  32,C  30,H  33)          110.8822         0.291143   
     92. A(H  31,C  30,H  33)          108.8508         0.290286   
     93. A(O  29,C  30,H  33)          110.1349         0.336878   
     94. A(H  31,C  30,H  32)          110.9179         0.291164   
     95. A(O  29,C  30,H  32)          105.8452         0.337959   
     96. A(O  29,C  30,H  31)          110.1899         0.336902   
     97. A(C  20,O  34,C  35)          118.7443         0.414740   
     98. A(H  36,C  35,H  38)          109.5718         0.290459   
     99. A(O  34,C  35,H  38)          111.3193         0.338950   
    100. A(H  36,C  35,H  37)          109.5978         0.290464   
    101. A(O  34,C  35,H  37)          111.3051         0.338956   
    102. A(H  37,C  35,H  38)          109.5788         0.289553   
    103. A(O  34,C  35,H  36)          105.3778         0.340086   
    104. D(C  27,C   1,C   0,C   5)    178.8452         0.026250   
    105. D(C   2,C   1,C   0,H   7)    179.8784         0.026250   
    106. D(C   2,C   1,C   0,C   5)     -0.2494         0.026250   
    107. D(C  27,C   1,C   0,H   7)     -1.0270         0.026250   
    108. D(C   3,C   2,C   1,C   0)      0.5043         0.026039   
    109. D(C   3,C   2,C   1,C  27)   -178.6233         0.026039   
    110. D(H   8,C   2,C   1,C  27)      0.7541         0.026039   
    111. D(H   8,C   2,C   1,C   0)    179.8817         0.026039   
    112. D(H   9,C   3,C   2,H   8)     -1.0347         0.029514   
    113. D(H   9,C   3,C   2,C   1)    178.3275         0.029514   
    114. D(C   4,C   3,C   2,H   8)   -179.6274         0.029514   
    115. D(C   4,C   3,C   2,C   1)     -0.2652         0.029514   
    116. D(C  10,C   4,C   3,C   2)    178.0175         0.025596   
    117. D(C   5,C   4,C   3,H   9)   -178.7918         0.025596   
    118. D(C   5,C   4,C   3,C   2)     -0.2234         0.025596   
    119. D(C  10,C   4,C   3,H   9)     -0.5509         0.025596   
    120. D(H   6,C   5,C   4,C  10)      1.8293         0.025314   
    121. D(C   0,C   5,C   4,C  10)   -177.8336         0.025314   
    122. D(C   0,C   5,C   4,C   3)      0.4795         0.025314   
    123. D(H   6,C   5,C   0,H   7)     -0.0300         0.029383   
    124. D(H   6,C   5,C   0,C   1)   -179.9012         0.029383   
    125. D(H   6,C   5,C   4,C   3)   -179.8576         0.025314   
    126. D(C   4,C   5,C   0,H   7)    179.6280         0.029383   
    127. D(C   4,C   5,C   0,C   1)     -0.2432         0.029383   
    128. D(O  12,C  10,C   4,C   5)     12.2691         0.014544   
    129. D(O  12,C  10,C   4,C   3)   -165.9761         0.014544   
    130. D(C  11,C  10,C   4,C   5)   -168.5023         0.014544   
    131. D(C  11,C  10,C   4,C   3)     13.2525         0.014544   
    132. D(H  15,C  11,C  10,C   4)      3.7842         0.031821   
    133. D(C  13,C  11,C  10,O  12)      2.6319         0.031821   
    134. D(C  13,C  11,C  10,C   4)   -176.5412         0.031821   
    135. D(H  15,C  11,C  10,O  12)   -177.0427         0.031821   
    136. D(H  16,O  12,C  10,C  11)      0.2498         0.037933   
    137. D(H  16,O  12,C  10,C   4)    179.4897         0.037933   
    138. D(O  17,C  13,C  11,H  15)    175.4298         0.018665   
    139. D(O  17,C  13,C  11,C  10)     -4.2472         0.018665   
    140. D(C  14,C  13,C  11,H  15)     -5.2883         0.018665   
    141. D(C  14,C  13,C  11,C  10)    175.0347         0.018665   
    142. D(C  19,C  14,C  13,O  17)    -11.5504         0.013334   
    143. D(C  19,C  14,C  13,C  11)    169.1526         0.013334   
    144. D(C  18,C  14,C  13,O  17)    166.5262         0.013334   
    145. D(C  18,C  14,C  13,C  11)    -12.7708         0.013334   
    146. D(H  26,C  18,C  14,C  19)    178.1376         0.026564   
    147. D(H  26,C  18,C  14,C  13)      0.1109         0.026564   
    148. D(C  23,C  18,C  14,C  19)     -0.3739         0.026564   
    149. D(C  23,C  18,C  14,C  13)   -178.4006         0.026564   
    150. D(H  22,C  19,C  14,C  18)   -179.5068         0.025527   
    151. D(H  22,C  19,C  14,C  13)     -1.3400         0.025527   
    152. D(C  20,C  19,C  14,C  18)      0.1930         0.025527   
    153. D(C  20,C  19,C  14,C  13)    178.3598         0.025527   
    154. D(O  34,C  20,C  19,H  22)     -0.0107         0.027793   
    155. D(O  34,C  20,C  19,C  14)   -179.6976         0.027793   
    156. D(C  21,C  20,C  19,H  22)    179.9477         0.027793   
    157. D(C  21,C  20,C  19,C  14)      0.2608         0.027793   
    158. D(H  24,C  21,C  20,O  34)     -0.0849         0.025412   
    159. D(H  24,C  21,C  20,C  19)    179.9529         0.025412   
    160. D(C  23,C  21,C  20,O  34)    179.4247         0.025412   
    161. D(C  23,C  21,C  20,C  19)     -0.5374         0.025412   
    162. D(C  18,C  23,C  21,C  20)      0.3615         0.029284   
    163. D(H  25,C  23,C  18,H  26)      1.3239         0.028049   
    164. D(H  25,C  23,C  18,C  14)    179.8696         0.028049   
    165. D(C  21,C  23,C  18,H  26)   -178.4468         0.028049   
    166. D(C  21,C  23,C  18,C  14)      0.0989         0.028049   
    167. D(H  25,C  23,C  21,H  24)      0.0851         0.029284   
    168. D(H  25,C  23,C  21,C  20)   -179.4097         0.029284   
    169. D(C  18,C  23,C  21,H  24)    179.8562         0.029284   
    170. D(O  29,C  27,C   1,C   2)    178.0050         0.013616   
    171. D(O  29,C  27,C   1,C   0)     -1.0991         0.013616   
    172. D(O  28,C  27,C   1,C   2)     -1.6292         0.013616   
    173. D(O  28,C  27,C   1,C   0)    179.2667         0.013616   
    174. D(C  30,O  29,C  27,O  28)      0.4154         0.034899   
    175. D(C  30,O  29,C  27,C   1)   -179.2235         0.034899   
    176. D(H  33,C  30,O  29,C  27)     59.9146         0.019007   
    177. D(H  32,C  30,O  29,C  27)    179.8291         0.019007   
    178. D(H  31,C  30,O  29,C  27)    -60.1841         0.019007   
    179. D(C  35,O  34,C  20,C  21)   -178.8943         0.028677   
    180. D(C  35,O  34,C  20,C  19)      1.0653         0.028677   
    181. D(H  38,C  35,O  34,C  20)    -62.2155         0.020844   
    182. D(H  37,C  35,O  34,C  20)     60.3529         0.020844   
    183. D(H  36,C  35,O  34,C  20)    179.0805         0.020844   
    -----------------------------------------------------------------

Number of atoms                         .... 39
Number of degrees of freedom            .... 183

         *************************************************************
         *                GEOMETRY OPTIMIZATION CYCLE   1            *
         *************************************************************
---------------------------------
CARTESIAN COORDINATES (ANGSTROEM)
---------------------------------
  C     -3.732412    1.361715   -0.078537
  C     -3.925824   -0.018032   -0.039056
  C     -2.819725   -0.865375    0.025082
  C     -1.542094   -0.348089    0.059992
  C     -1.339546    1.033769    0.025902
  C     -2.453049    1.876534   -0.048740
  H     -2.295968    2.943231   -0.077376
  H     -4.585360    2.019040   -0.130116
  H     -2.988061   -1.931119    0.056922
  H     -0.707158   -1.024311    0.136897
  C     -0.001015    1.641586    0.103419
  C      1.158637    0.929518   -0.048567
  O      0.001318    2.943353    0.350143
  C      2.446482    1.550767    0.107667
  C      3.670974    0.714655    0.042660
  H      1.112586   -0.112570   -0.294335
  H      0.955599    3.245142    0.389118
  O      2.555146    2.775660    0.309842
  C      3.664336   -0.676698    0.092737
  C      4.890294    1.392968   -0.033829
  C      6.089134    0.697141   -0.064283
  C      6.066033   -0.700024   -0.022942
  H      4.859453    2.471026   -0.062838
  C      4.862850   -1.370567    0.058382
  H      7.004726   -1.230268   -0.047988
  H      4.857386   -2.448969    0.099349
  H      2.744031   -1.228744    0.181858
  C     -5.277887   -0.622987   -0.043160
  O     -5.488181   -1.817652   -0.022568
  O     -6.255394    0.286447   -0.064258
  C     -7.592106   -0.209556   -0.052425
  H     -7.768203   -0.838838   -0.926821
  H     -8.233915    0.666924   -0.069692
  H     -7.765474   -0.801129    0.848586
  O      7.321016    1.269357   -0.131957
  C      7.415281    2.679716   -0.152686
  H      8.481040    2.897220   -0.191212
  H      6.983348    3.120218    0.750564
  H      6.923734    3.098211   -1.035734

----------------------------
CARTESIAN COORDINATES (A.U.)
----------------------------
  NO LB      ZA    FRAG     MASS         X           Y           Z
   0 C     6.0000    0    12.011   -7.053237    2.573268   -0.148413
   1 C     6.0000    0    12.011   -7.418732   -0.034076   -0.073805
   2 C     6.0000    0    12.011   -5.328508   -1.635321    0.047399
   3 C     6.0000    0    12.011   -2.914136   -0.657793    0.113369
   4 C     6.0000    0    12.011   -2.531375    1.953541    0.048948
   5 C     6.0000    0    12.011   -4.635591    3.546136   -0.092105
   6 H     1.0000    0     1.008   -4.338750    5.561900   -0.146220
   7 H     1.0000    0     1.008   -8.665074    3.815433   -0.245884
   8 H     1.0000    0     1.008   -5.646618   -3.649286    0.107567
   9 H     1.0000    0     1.008   -1.336335   -1.935668    0.258698
  10 C     6.0000    0    12.011   -0.001917    3.102149    0.195433
  11 C     6.0000    0    12.011    2.189507    1.756535   -0.091778
  12 O     8.0000    0    15.999    0.002491    5.562132    0.661674
  13 C     6.0000    0    12.011    4.623182    2.930524    0.203461
  14 C     6.0000    0    12.011    6.937135    1.350503    0.080617
  15 H     1.0000    0     1.008    2.102484   -0.212727   -0.556213
  16 H     1.0000    0     1.008    1.805821    6.132430    0.735327
  17 O     8.0000    0    15.999    4.828526    5.245236    0.585516
  18 C     6.0000    0    12.011    6.924592   -1.278773    0.175248
  19 C     6.0000    0    12.011    9.241316    2.632328   -0.063928
  20 C     6.0000    0    12.011   11.506796    1.317406   -0.121477
  21 C     6.0000    0    12.011   11.463141   -1.322854   -0.043353
  22 H     1.0000    0     1.008    9.183036    4.669563   -0.118746
  23 C     6.0000    0    12.011    9.189456   -2.589996    0.110325
  24 H     1.0000    0     1.008   13.237014   -2.324869   -0.090685
  25 H     1.0000    0     1.008    9.179130   -4.627881    0.187742
  26 H     1.0000    0     1.008    5.185468   -2.321989    0.343662
  27 C     6.0000    0    12.011   -9.973762   -1.177275   -0.081561
  28 O     8.0000    0    15.999  -10.371160   -3.434865   -0.042648
  29 O     8.0000    0    15.999  -11.820981    0.541307   -0.121430
  30 C     6.0000    0    12.011  -14.347001   -0.396004   -0.099069
  31 H     1.0000    0     1.008  -14.679776   -1.585173   -1.751438
  32 H     1.0000    0     1.008  -15.559845    1.260304   -0.131700
  33 H     1.0000    0     1.008  -14.674620   -1.513914    1.603595
  34 O     8.0000    0    15.999   13.834716    2.398738   -0.249362
  35 C     6.0000    0    12.011   14.012851    5.063930   -0.288534
  36 H     1.0000    0     1.008   16.026842    5.474952   -0.361338
  37 H     1.0000    0     1.008   13.196616    5.896357    1.418360
  38 H     1.0000    0     1.008   13.083961    5.854771   -1.957253

--------------------------------
INTERNAL COORDINATES (ANGSTROEM)
--------------------------------
 C      0   0   0     0.000000000000     0.00000000     0.00000000
 C      1   0   0     1.393796715466     0.00000000     0.00000000
 C      2   1   0     1.394832581351   119.51323793     0.00000000
 C      3   2   1     1.378819702374   120.53451315     0.50429110
 C      4   3   2     1.397039924108   120.31904901   359.73484176
 C      1   2   3     1.379382763495   119.83834760   359.75063820
 H      6   1   2     1.078580592092   120.23951997   180.09876077
 H      1   2   3     1.078079802414   119.67897514   179.87838912
 H      3   2   1     1.079426549899   118.52063082   179.88169657
 H      4   3   2     1.077176618518   118.98104225   178.32749639
 C      5   4   3     1.472113106262   122.61176168   178.01754505
 C     11   5   4     1.369281926253   123.33250097    13.25247224
 O     11   5   4     1.324943557068   114.64983148   194.02388402
 C     12  11   5     1.438368515040   121.44057427   183.45876633
 C     14  12  11     1.484145156194   119.38184242   175.03473184
 H     12  11   5     1.071667309368   119.65258970     3.78417740
 H     13  11   5     1.001622653082   107.75534201   179.48972572
 O     14  12  11     1.246212338031   121.34663661   355.75283163
 C     15  14  12     1.392269693364   123.88187976   347.22920256
 C     15  14  12     1.397390530722   116.66961992   169.15262314
 C     20  15  14     1.386477868810   120.80183241   178.35980758
 C     21  20  15     1.397968102143   119.12000053     0.26078027
 H     20  15  14     1.078889281783   117.48841688   358.66002098
 C     22  21  20     1.379814964459   120.12176238   359.46259251
 H     22  21  20     1.078392656251   118.44695072   179.95293977
 H     24  22  21     1.079193947064   119.48932948   180.59034222
 H     19  15  14     1.076874531646   121.28870270     0.11085722
 C      2   1   3     1.481236444929   122.06501906   179.09460113
 O     28   2   1     1.213207599534   124.07957831   179.26665016
 O     28   2   1     1.335303047389   112.96047444   358.90089192
 C     30  28   2     1.425819026772   116.69507789   180.77647529
 H     31  30  28     1.091592154560   110.18993443   299.81586823
 H     31  30  28     1.086478343850   105.84524700   179.82912017
 H     31  30  28     1.091712340800   110.13494809    59.91461504
 O     21  20  15     1.359979529187   124.97043820   180.30236478
 C     35  21  20     1.413657810115   118.74432279     1.06528872
 H     36  35  21     1.088408298189   105.37781508   179.08046681
 H     36  35  21     1.093831474035   111.30513392    60.35288549
 H     36  35  21     1.093860407656   111.31932087   297.78447797

---------------------------
INTERNAL COORDINATES (A.U.)
---------------------------
 C      0   0   0     0.000000000000     0.00000000     0.00000000
 C      1   0   0     2.633894078590     0.00000000     0.00000000
 C      2   1   0     2.635851581424   119.51323793     0.00000000
 C      3   2   1     2.605591625541   120.53451315     0.50429110
 C      4   3   2     2.640022854718   120.31904901   359.73484176
 C      1   2   3     2.606655656857   119.83834760   359.75063820
 H      6   1   2     2.038221932416   120.23951997   180.09876077
 H      1   2   3     2.037275577075   119.67897514   179.87838912
 H      3   2   1     2.039820560992   118.52063082   179.88169657
 H      4   3   2     2.035568806862   118.98104225   178.32749639
 C      5   4   3     2.781890608991   122.61176168   178.01754505
 C     11   5   4     2.587567840747   123.33250097    13.25247224
 O     11   5   4     2.503780465762   114.64983148   194.02388402
 C     12  11   5     2.718122573080   121.44057427   183.45876633
 C     14  12  11     2.804627888192   119.38184242   175.03473184
 H     12  11   5     2.025157721381   119.65258970     3.78417740
 H     13  11   5     1.892792503856   107.75534201   179.48972572
 O     14  12  11     2.355000023592   121.34663661   355.75283163
 C     15  14  12     2.631008425016   123.88187976   347.22920256
 C     15  14  12     2.640685405199   116.66961992   169.15262314
 C     20  15  14     2.620063462795   120.80183241   178.35980758
 C     21  20  15     2.641776857009   119.12000053     0.26078027
 H     20  15  14     2.038805271393   117.48841688   358.66002098
 C     22  21  20     2.607472398315   120.12176238   359.46259251
 H     22  21  20     2.037866785145   118.44695072   179.95293977
 H     24  22  21     2.039381005336   119.48932948   180.59034222
 H     19  15  14     2.034997945406   121.28870270     0.11085722
 C      2   1   3     2.799131220500   122.06501906   179.09460113
 O     28   2   1     2.292630106712   124.07957831   179.26665016
 O     28   2   1     2.523357065356   112.96047444   358.90089192
 C     30  28   2     2.694407477133   116.69507789   180.77647529
 H     31  30  28     2.062810222056   110.18993443   299.81586823
 H     31  30  28     2.053146520313   105.84524700   179.82912017
 H     31  30  28     2.063037341134   110.13494809    59.91461504
 O     21  20  15     2.569988857903   124.97043820   180.30236478
 C     35  21  20     2.671426108197   118.74432279     1.06528872
 H     36  35  21     2.056793605464   105.37781508   179.08046681
 H     36  35  21     2.067041922589   111.30513392    60.35288549
 H     36  35  21     2.067096599209   111.31932087   297.78447797

---------------------
BASIS SET INFORMATION
---------------------
There are 3 groups of distinct atoms

 Group   1 Type C   : 11s6p2d1f contracted to 5s3p2d1f pattern {62111/411/11/1}
 Group   2 Type H   : 5s1p contracted to 3s1p pattern {311/1}
 Group   3 Type O   : 11s6p2d1f contracted to 5s3p2d1f pattern {62111/411/11/1}

Atom   0C    basis set group =>   1
Atom   1C    basis set group =>   1
Atom   2C    basis set group =>   1
Atom   3C    basis set group =>   1
Atom   4C    basis set group =>   1
Atom   5C    basis set group =>   1
Atom   6H    basis set group =>   2
Atom   7H    basis set group =>   2
Atom   8H    basis set group =>   2
Atom   9H    basis set group =>   2
Atom  10C    basis set group =>   1
Atom  11C    basis set group =>   1
Atom  12O    basis set group =>   3
Atom  13C    basis set group =>   1
Atom  14C    basis set group =>   1
Atom  15H    basis set group =>   2
Atom  16H    basis set group =>   2
Atom  17O    basis set group =>   3
Atom  18C    basis set group =>   1
Atom  19C    basis set group =>   1
Atom  20C    basis set group =>   1
Atom  21C    basis set group =>   1
Atom  22H    basis set group =>   2
Atom  23C    basis set group =>   1
Atom  24H    basis set group =>   2
Atom  25H    basis set group =>   2
Atom  26H    basis set group =>   2
Atom  27C    basis set group =>   1
Atom  28O    basis set group =>   3
Atom  29O    basis set group =>   3
Atom  30C    basis set group =>   1
Atom  31H    basis set group =>   2
Atom  32H    basis set group =>   2
Atom  33H    basis set group =>   2
Atom  34O    basis set group =>   3
Atom  35C    basis set group =>   1
Atom  36H    basis set group =>   2
Atom  37H    basis set group =>   2
Atom  38H    basis set group =>   2
---------------------------------
AUXILIARY/J BASIS SET INFORMATION
---------------------------------
There are 3 groups of distinct atoms

 Group   1 Type C   : 12s5p4d2f1g contracted to 6s4p3d1f1g pattern {711111/2111/211/2/1}
 Group   2 Type H   : 5s2p1d contracted to 3s1p1d pattern {311/2/1}
 Group   3 Type O   : 12s5p4d2f1g contracted to 6s4p3d1f1g pattern {711111/2111/211/2/1}

Atom   0C    basis set group =>   1
Atom   1C    basis set group =>   1
Atom   2C    basis set group =>   1
Atom   3C    basis set group =>   1
Atom   4C    basis set group =>   1
Atom   5C    basis set group =>   1
Atom   6H    basis set group =>   2
Atom   7H    basis set group =>   2
Atom   8H    basis set group =>   2
Atom   9H    basis set group =>   2
Atom  10C    basis set group =>   1
Atom  11C    basis set group =>   1
Atom  12O    basis set group =>   3
Atom  13C    basis set group =>   1
Atom  14C    basis set group =>   1
Atom  15H    basis set group =>   2
Atom  16H    basis set group =>   2
Atom  17O    basis set group =>   3
Atom  18C    basis set group =>   1
Atom  19C    basis set group =>   1
Atom  20C    basis set group =>   1
Atom  21C    basis set group =>   1
Atom  22H    basis set group =>   2
Atom  23C    basis set group =>   1
Atom  24H    basis set group =>   2
Atom  25H    basis set group =>   2
Atom  26H    basis set group =>   2
Atom  27C    basis set group =>   1
Atom  28O    basis set group =>   3
Atom  29O    basis set group =>   3
Atom  30C    basis set group =>   1
Atom  31H    basis set group =>   2
Atom  32H    basis set group =>   2
Atom  33H    basis set group =>   2
Atom  34O    basis set group =>   3
Atom  35C    basis set group =>   1
Atom  36H    basis set group =>   2
Atom  37H    basis set group =>   2
Atom  38H    basis set group =>   2


           ************************************************************
           *        Program running with 4 parallel MPI-processes     *
           *              working on a common directory               *
           ************************************************************
------------------------------------------------------------------------------
                           ORCA GTO INTEGRAL CALCULATION
                           -- RI-GTO INTEGRALS CHOSEN --
------------------------------------------------------------------------------
------------------------------------------------------------------------------
                   ___                                                        
                  /   \      - P O W E R E D   B Y -                         
                 /     \                                                     
                 |  |  |   _    _      __       _____    __    __             
                 |  |  |  | |  | |    /  \     |  _  \  |  |  /  |          
                  \  \/   | |  | |   /    \    | | | |  |  | /  /          
                 / \  \   | |__| |  /  /\  \   | |_| |  |  |/  /          
                |  |  |   |  __  | /  /__\  \  |    /   |      \           
                |  |  |   | |  | | |   __   |  |    \   |  |\   \          
                \     /   | |  | | |  |  |  |  | |\  \  |  | \   \       
                 \___/    |_|  |_| |__|  |__|  |_| \__\ |__|  \__/        
                                                                              
                      - O R C A' S   B I G   F R I E N D -                    
                                      &                                       
                       - I N T E G R A L  F E E D E R -                       
                                                                              
 v1 FN, 2020, v2 2021                                                         
------------------------------------------------------------------------------


Reading SHARK input file Aldol_Cry.SHARKINP.tmp ... ok
----------------------
SHARK INTEGRAL PACKAGE
----------------------

Number of atoms                             ...     39
Number of basis functions                   ...    809
Number of shells                            ...    317
Maximum angular momentum                    ...      3
Integral batch strategy                     ... SHARK/LIBINT Hybrid
RI-J (if used) integral strategy            ... SPLIT-RIJ (Revised 2003 algorithm where possible)
Printlevel                                  ...      1
Contraction scheme used                     ... SEGMENTED contraction
Coulomb Range Separation                    ... NOT USED
Exchange Range Separation                   ... NOT USED
Finite Nucleus Model                        ... NOT USED
Auxiliary Coulomb fitting basis             ... AVAILABLE
   # of basis functions in Aux-J            ...   1303
   # of shells in Aux-J                     ...    425
   Maximum angular momentum in Aux-J        ...      4
Auxiliary J/K fitting basis                 ... NOT available
Auxiliary Correlation fitting basis         ... NOT available
Auxiliary 'external' fitting basis          ... NOT available
Integral threshold                          ...     2.500000e-11
Primitive cut-off                           ...     2.500000e-12
Primitive pair pre-selection threshold      ...     2.500000e-12

Calculating pre-screening integrals         ... done (  0.3 sec) Dimension = 317
Organizing shell pair data                  ... done (  0.6 sec)
Shell pair information
Total number of shell pairs                 ...     50403
Shell pairs after pre-screening             ...     29084
Total number of primitive shell pairs       ...    155400
Primitive shell pairs kept                  ...     60097
          la=0 lb=0:   7349 shell pairs
          la=1 lb=0:   8399 shell pairs
          la=1 lb=1:   2426 shell pairs
          la=2 lb=0:   4156 shell pairs
          la=2 lb=1:   2385 shell pairs
          la=2 lb=2:    596 shell pairs
          la=3 lb=0:   1959 shell pairs
          la=3 lb=1:   1131 shell pairs
          la=3 lb=2:    544 shell pairs
          la=3 lb=3:    139 shell pairs

Calculating one electron integrals          ... done (  0.2 sec)
Calculating RI/J V-Matrix + Cholesky decomp.... done (  0.3 sec)
Calculating Nuclear repulsion               ... done (  0.0 sec) ENN=   1707.539130435280 Eh

SHARK setup successfully completed in   2.3 seconds

Maximum memory used throughout the entire GTOINT-calculation: 49.9 MB


           ************************************************************
           *        Program running with 4 parallel MPI-processes     *
           *              working on a common directory               *
           ************************************************************
-------------------------------------------------------------------------------
                                 ORCA SCF
-------------------------------------------------------------------------------

------------
SCF SETTINGS
------------
Hamiltonian:
 Density Functional     Method          .... DFT(GTOs)
 Exchange Functional    Exchange        .... TPSS
 Correlation Functional Correlation     .... TPSS
 LDA part of GGA corr.  LDAOpt          .... PW91-LDA
 Gradients option       PostSCFGGA      .... off
   Density functional embedding theory  .... OFF
   NL short-range parameter             ....  5.000000
 RI-approximation to the Coulomb term is turned on
   Number of AuxJ basis functions       .... 1303


General Settings:
 Integral files         IntName         .... Aldol_Cry
 Hartree-Fock type      HFTyp           .... RHF
 Total Charge           Charge          ....    0
 Multiplicity           Mult            ....    1
 Number of Electrons    NEL             ....  164
 Basis Dimension        Dim             ....  809
 Nuclear Repulsion      ENuc            ....   1707.5391304353 Eh

Convergence Acceleration:
 DIIS                   CNVDIIS         .... on
   Start iteration      DIISMaxIt       ....    12
   Startup error        DIISStart       ....  0.200000
   # of expansion vecs  DIISMaxEq       ....     5
   Bias factor          DIISBfac        ....   1.050
   Max. coefficient     DIISMaxC        ....  10.000
 Trust-Rad. Augm. Hess. CNVTRAH         .... auto
   Auto Start mean grad. ratio tolernc. ....  1.125000
   Auto Start start iteration           ....    20
   Auto Start num. interpolation iter.  ....    10
   Max. Number of Micro iterations      ....    16
   Max. Number of Macro iterations      .... Maxiter - #DIIS iter
   Number of Davidson start vectors     ....     2
   Converg. threshold I  (grad. norm)   ....   1.000e-05
   Converg. threshold II (energy diff.) ....   1.000e-08
   Grad. Scal. Fac. for Micro threshold ....   0.100
   Minimum threshold for Micro iter.    ....   0.010
   NR start threshold (gradient norm)   ....   0.001
   Initial trust radius                 ....   0.400
   Minimum AH scaling param. (alpha)    ....   1.000
   Maximum AH scaling param. (alpha)    .... 1000.000
   Orbital update algorithm             .... Taylor
   White noise on init. David. guess    .... on
   Maximum white noise                  ....   0.010
   Quad. conv. algorithm                .... NR
 SOSCF                  CNVSOSCF        .... on
   Start iteration      SOSCFMaxIt      ....   150
   Startup grad/error   SOSCFStart      ....  0.003300
 Level Shifting         CNVShift        .... on
   Level shift para.    LevelShift      ....    0.2500
   Turn off err/grad.   ShiftErr        ....    0.0010
 Zerner damping         CNVZerner       .... off
 Static damping         CNVDamp         .... on
   Fraction old density DampFac         ....    0.7000
   Max. Damping (<1)    DampMax         ....    0.9800
   Min. Damping (>=0)   DampMin         ....    0.0000
   Turn off err/grad.   DampErr         ....    0.1000
 Fernandez-Rico         CNVRico         .... off

SCF Procedure:
 Maximum # iterations   MaxIter         ....   125
 SCF integral mode      SCFMode         .... Direct
   Integral package                     .... SHARK and LIBINT hybrid scheme
 Reset frequency        DirectResetFreq ....    20
 Integral Threshold     Thresh          ....  2.500e-11 Eh
 Primitive CutOff       TCut            ....  2.500e-12 Eh

Convergence Tolerance:
 Convergence Check Mode ConvCheckMode   .... Total+1el-Energy
 Convergence forced     ConvForced      .... 0
 Energy Change          TolE            ....  1.000e-08 Eh
 1-El. energy change                    ....  1.000e-05 Eh
 Orbital Gradient       TolG            ....  1.000e-05
 Orbital Rotation angle TolX            ....  1.000e-05
 DIIS Error             TolErr          ....  5.000e-07


Diagonalization of the overlap matrix:
Smallest eigenvalue                        ... 6.713e-06
Time for diagonalization                   ...    0.515 sec
Threshold for overlap eigenvalues          ... 1.000e-08
Number of eigenvalues below threshold      ... 0
Time for construction of square roots      ...    0.329 sec
Total time needed                          ...    0.849 sec

Time for model grid setup =    1.208 sec

------------------------------
INITIAL GUESS: MODEL POTENTIAL
------------------------------
Loading Hartree-Fock densities                     ... done
Calculating cut-offs                               ... done
Initializing the effective Hamiltonian             ... done
Setting up the integral package (SHARK)            ... done
Starting the Coulomb interaction                   ... done (   1.9 sec)
Reading the grid                                   ... done
Mapping shells                                     ... done
Starting the XC term evaluation                    ... done (   1.5 sec)
  promolecular density results
     # of electrons  =    163.984695350
     EX              =   -137.627369328
     EC              =     -5.520525668
     EX+EC           =   -143.147894996
Transforming the Hamiltonian                       ... done (   0.3 sec)
Diagonalizing the Hamiltonian                      ... done (   0.5 sec)
Back transforming the eigenvectors                 ... done (   0.1 sec)
Now organizing SCF variables                       ... done
                      ------------------
                      INITIAL GUESS DONE (   5.7 sec)
                      ------------------
-------------------
DFT GRID GENERATION
-------------------

General Integration Accuracy     IntAcc      ... 4.388
Radial Grid Type                 RadialGrid  ... OptM3 with GC (2021)
Angular Grid (max. ang.)         AngularGrid ... 4 (Lebedev-302)
Angular grid pruning method      GridPruning ... 4 (adaptive)
Weight generation scheme         WeightScheme... Becke
Basis function cutoff            BFCut       ... 1.0000e-11
Integration weight cutoff        WCut        ... 1.0000e-14
Angular grids for H and He will be reduced by one unit
Partially contracted basis set               ... off
Rotationally invariant grid construction     ... off

Total number of grid points                  ...   189050
Total number of batches                      ...     2970
Average number of points per batch           ...       63
Average number of grid points per atom       ...     4847
Time for grid setup =    4.143 sec


--------------------
CPCM SOLVATION MODEL
--------------------
CPCM parameters:
  Epsilon                                         ...       7.2500
  Refrac                                          ...       1.4070
  Rsolv                                           ...       1.3000
  Surface type                                    ... GAUSSIAN VDW
  Epsilon function type                           ...         CPCM
Radii:
 Radius for C  used is    3.8550 Bohr (=   2.0400 Ang.)
 Radius for H  used is    2.4944 Bohr (=   1.3200 Ang.)
 Radius for O  used is    3.4469 Bohr (=   1.8240 Ang.)
Calculating surface                               ...        done! (  0.0s)
GEPOL surface points                              ...         2054
GEPOL Volume                                      ...    2449.3071
GEPOL Surface-area                                ...    1266.8084
Calculating surface distance matrix               ...        done! (  0.1s)
Performing Cholesky decomposition & store         ...        done! (  0.5s)
Overall time for CPCM initialization              ...                 0.6s
--------------
SCF ITERATIONS
--------------
ITER       Energy         Delta-E        Max-DP      RMS-DP      [F,P]     Damp
               ***  Starting incremental Fock matrix formation  ***
  0  -1071.8020126153   0.000000000000 0.25483213  0.00135644  0.2724670 0.7000
  1  -1072.0300109250  -0.227998309730 0.26426697  0.00125011  0.0909829 0.7000
                               ***Turning on DIIS***
  2  -1072.1106594740  -0.080648548985 0.38288419  0.00194124  0.0335148 0.0000
  3  -1072.2459802128  -0.135320738822 0.24479038  0.00108020  0.0406599 0.0000
  4  -1072.2734526244  -0.027472411517 0.08181383  0.00035781  0.0286122 0.0000
  5  -1072.2763143956  -0.002861771280 0.03365384  0.00015452  0.0072640 0.0000
                      *** Initiating the SOSCF procedure ***
                           *** Shutting down DIIS ***
                      *** Re-Reading the Fockian *** 
                      *** Removing any level shift *** 
ITER      Energy       Delta-E        Grad      Rot      Max-DP    RMS-DP
  6  -1072.27648509  -0.0001706918  0.000217  0.000217  0.006939  0.000041
               *** Restarting incremental Fock matrix formation ***
  7  -1072.27650497  -0.0000198827  0.000113  0.000762  0.003173  0.000023
  8  -1072.27649973   0.0000052377  0.000263  0.000423  0.001052  0.000008
  9  -1072.27650789  -0.0000081549  0.000054  0.000274  0.000435  0.000004
 10  -1072.27650725   0.0000006364  0.000103  0.000140  0.000291  0.000003
 11  -1072.27650805  -0.0000007989  0.000010  0.000045  0.000822  0.000004
 12  -1072.27650803   0.0000000164  0.000018  0.000034  0.000326  0.000002
 13  -1072.27650806  -0.0000000297  0.000006  0.000053  0.000228  0.000002
 14  -1072.27650806   0.0000000039  0.000011  0.000036  0.000082  0.000001
                 **** Energy Check signals convergence ****
              ***Rediagonalizing the Fockian in SOSCF/NRSCF***

               *****************************************************
               *                     SUCCESS                       *
               *           SCF CONVERGED AFTER  15 CYCLES          *
               *****************************************************


----------------
TOTAL SCF ENERGY
----------------

Total Energy       :        -1072.27650806 Eh          -29178.12717 eV

Components:
Nuclear Repulsion  :         1707.53913044 Eh           46464.50195 eV
Electronic Energy  :        -2779.81563850 Eh          -75642.62912 eV
One Electron Energy:        -4850.98370575 Eh         -132001.97748 eV
Two Electron Energy:         2071.16806725 Eh           56359.34836 eV
CPCM Dielectric    :           -0.01615216 Eh              -0.43952 eV

Virial components:
Potential Energy   :        -2140.54351219 Eh          -58247.15019 eV
Kinetic Energy     :         1068.26700412 Eh           29069.02302 eV
Virial Ratio       :            2.00375328


DFT components:
N(Alpha)           :       81.999884819664 electrons
N(Beta)            :       81.999884819664 electrons
N(Total)           :      163.999769639327 electrons
E(X)               :     -141.626019984124 Eh       
E(C)               :       -5.531357491355 Eh       
E(XC)              :     -147.157377475479 Eh       
DFET-embed. en.    :        0.000000000000 Eh       
CPCM Solvation Model Properties:
Surface-charge          :           -0.03168835
Charge-correction       :           -0.00005442 Eh              -0.00148 eV
Free-energy (cav+disp)  :  This term is not implemented in the current solvation scheme

---------------
SCF CONVERGENCE
---------------

  Last Energy change         ...   -5.2655e-09  Tolerance :   1.0000e-08
  Last MAX-Density change    ...    1.6518e-04  Tolerance :   1.0000e-07
  Last RMS-Density change    ...    1.2247e-06  Tolerance :   5.0000e-09
  Last Orbital Gradient      ...    2.0118e-06  Tolerance :   1.0000e-05
  Last Orbital Rotation      ...    1.0140e-05  Tolerance :   1.0000e-05

             **** THE GBW FILE WAS UPDATED (Aldol_Cry.gbw) ****
             **** DENSITY Aldol_Cry.scfp WAS UPDATED ****
             **** ENERGY FILE WAS UPDATED (Aldol_Cry.en.tmp) ****
             **** THE GBW FILE WAS UPDATED (Aldol_Cry.gbw) ****
             **** DENSITY Aldol_Cry.scfp WAS UPDATED ****
----------------
ORBITAL ENERGIES
----------------

  NO   OCC          E(Eh)            E(eV) 
   0   2.0000     -18.933976      -515.2197 
   1   2.0000     -18.922754      -514.9143 
   2   2.0000     -18.918360      -514.7947 
   3   2.0000     -18.875110      -513.6178 
   4   2.0000     -18.874751      -513.6081 
   5   2.0000     -10.112543      -275.1763 
   6   2.0000     -10.076636      -274.1992 
   7   2.0000     -10.070276      -274.0261 
   8   2.0000     -10.050477      -273.4874 
   9   2.0000     -10.037895      -273.1450 
  10   2.0000     -10.033843      -273.0347 
  11   2.0000     -10.017315      -272.5850 
  12   2.0000     -10.013249      -272.4744 
  13   2.0000     -10.005187      -272.2550 
  14   2.0000     -10.003459      -272.2080 
  15   2.0000     -10.003026      -272.1962 
  16   2.0000     -10.002151      -272.1724 
  17   2.0000     -10.001298      -272.1492 
  18   2.0000      -9.993531      -271.9378 
  19   2.0000      -9.992615      -271.9129 
  20   2.0000      -9.991919      -271.8939 
  21   2.0000      -9.990024      -271.8424 
  22   2.0000      -9.986264      -271.7401 
  23   2.0000      -1.045858       -28.4592 
  24   2.0000      -1.018255       -27.7081 
  25   2.0000      -1.004653       -27.3380 
  26   2.0000      -0.968797       -26.3623 
  27   2.0000      -0.956406       -26.0251 
  28   2.0000      -0.822224       -22.3739 
  29   2.0000      -0.806693       -21.9512 
  30   2.0000      -0.754145       -20.5213 
  31   2.0000      -0.726965       -19.7817 
  32   2.0000      -0.711474       -19.3602 
  33   2.0000      -0.706420       -19.2227 
  34   2.0000      -0.702038       -19.1034 
  35   2.0000      -0.677405       -18.4331 
  36   2.0000      -0.649051       -17.6616 
  37   2.0000      -0.624132       -16.9835 
  38   2.0000      -0.596959       -16.2441 
  39   2.0000      -0.575000       -15.6465 
  40   2.0000      -0.559099       -15.2139 
  41   2.0000      -0.551489       -15.0068 
  42   2.0000      -0.528530       -14.3820 
  43   2.0000      -0.524411       -14.2699 
  44   2.0000      -0.503905       -13.7120 
  45   2.0000      -0.490813       -13.3557 
  46   2.0000      -0.467797       -12.7294 
  47   2.0000      -0.455015       -12.3816 
  48   2.0000      -0.445494       -12.1225 
  49   2.0000      -0.444676       -12.1003 
  50   2.0000      -0.441810       -12.0223 
  51   2.0000      -0.438289       -11.9264 
  52   2.0000      -0.426784       -11.6134 
  53   2.0000      -0.418588       -11.3904 
  54   2.0000      -0.414087       -11.2679 
  55   2.0000      -0.406456       -11.0602 
  56   2.0000      -0.404532       -11.0079 
  57   2.0000      -0.398777       -10.8513 
  58   2.0000      -0.397266       -10.8102 
  59   2.0000      -0.389376       -10.5955 
  60   2.0000      -0.380932       -10.3657 
  61   2.0000      -0.376462       -10.2440 
  62   2.0000      -0.372537       -10.1372 
  63   2.0000      -0.365838        -9.9550 
  64   2.0000      -0.349188        -9.5019 
  65   2.0000      -0.343915        -9.3584 
  66   2.0000      -0.338873        -9.2212 
  67   2.0000      -0.335079        -9.1180 
  68   2.0000      -0.334647        -9.1062 
  69   2.0000      -0.322838        -8.7849 
  70   2.0000      -0.319777        -8.7016 
  71   2.0000      -0.310926        -8.4607 
  72   2.0000      -0.295777        -8.0485 
  73   2.0000      -0.291838        -7.9413 
  74   2.0000      -0.275538        -7.4978 
  75   2.0000      -0.259543        -7.0625 
  76   2.0000      -0.248338        -6.7576 
  77   2.0000      -0.246548        -6.7089 
  78   2.0000      -0.241175        -6.5627 
  79   2.0000      -0.228479        -6.2172 
  80   2.0000      -0.219717        -5.9788 
  81   2.0000      -0.205141        -5.5822 
  82   0.0000      -0.114951        -3.1280 
  83   0.0000      -0.076081        -2.0703 
  84   0.0000      -0.048541        -1.3209 
  85   0.0000      -0.030182        -0.8213 
  86   0.0000      -0.029169        -0.7937 
  87   0.0000       0.018322         0.4986 
  88   0.0000       0.034990         0.9521 
  89   0.0000       0.042412         1.1541 
  90   0.0000       0.047324         1.2877 
  91   0.0000       0.057034         1.5520 
  92   0.0000       0.057677         1.5695 
  93   0.0000       0.062305         1.6954 
  94   0.0000       0.064812         1.7636 
  95   0.0000       0.071627         1.9491 
  96   0.0000       0.078812         2.1446 
  97   0.0000       0.086758         2.3608 
  98   0.0000       0.097995         2.6666 
  99   0.0000       0.101419         2.7598 
 100   0.0000       0.105780         2.8784 
 101   0.0000       0.108375         2.9490 
 102   0.0000       0.110726         3.0130 
 103   0.0000       0.112361         3.0575 
 104   0.0000       0.114120         3.1054 
 105   0.0000       0.119858         3.2615 
 106   0.0000       0.126468         3.4414 
 107   0.0000       0.131172         3.5694 
 108   0.0000       0.136036         3.7017 
 109   0.0000       0.139907         3.8070 
 110   0.0000       0.144992         3.9454 
 111   0.0000       0.150541         4.0964 
 112   0.0000       0.160500         4.3674 
 113   0.0000       0.167655         4.5621 
 114   0.0000       0.174211         4.7405 
 115   0.0000       0.177215         4.8223 
 116   0.0000       0.180225         4.9042 
 117   0.0000       0.188831         5.1383 
 118   0.0000       0.191391         5.2080 
 119   0.0000       0.195159         5.3106 
 120   0.0000       0.198128         5.3913 
 121   0.0000       0.202835         5.5194 
 122   0.0000       0.205098         5.5810 
 123   0.0000       0.209221         5.6932 
 124   0.0000       0.210004         5.7145 
 125   0.0000       0.213797         5.8177 
 126   0.0000       0.216893         5.9019 
 127   0.0000       0.217843         5.9278 
 128   0.0000       0.218558         5.9473 
 129   0.0000       0.226058         6.1513 
 130   0.0000       0.230127         6.2621 
 131   0.0000       0.235136         6.3984 
 132   0.0000       0.237835         6.4718 
 133   0.0000       0.242658         6.6031 
 134   0.0000       0.249550         6.7906 
 135   0.0000       0.256950         6.9920 
 136   0.0000       0.260730         7.0948 
 137   0.0000       0.262268         7.1367 
 138   0.0000       0.273916         7.4536 
 139   0.0000       0.275640         7.5005 
 140   0.0000       0.279356         7.6017 
 141   0.0000       0.287140         7.8135 
 142   0.0000       0.290498         7.9048 
 143   0.0000       0.295035         8.0283 
 144   0.0000       0.296157         8.0589 
 145   0.0000       0.306878         8.3506 
 146   0.0000       0.309692         8.4271 
 147   0.0000       0.314597         8.5606 
 148   0.0000       0.319767         8.7013 
 149   0.0000       0.326476         8.8839 
 150   0.0000       0.327381         8.9085 
 151   0.0000       0.329114         8.9556 
 152   0.0000       0.335529         9.1302 
 153   0.0000       0.336053         9.1445 
 154   0.0000       0.342863         9.3298 
 155   0.0000       0.343604         9.3499 
 156   0.0000       0.350865         9.5475 
 157   0.0000       0.352808         9.6004 
 158   0.0000       0.358517         9.7557 
 159   0.0000       0.362666         9.8687 
 160   0.0000       0.367702        10.0057 
 161   0.0000       0.374311        10.1855 
 162   0.0000       0.379460        10.3256 
 163   0.0000       0.381540        10.3822 
 164   0.0000       0.386134        10.5072 
 165   0.0000       0.391451        10.6519 
 166   0.0000       0.395191        10.7537 
 167   0.0000       0.396733        10.7957 
 168   0.0000       0.400079        10.8867 
 169   0.0000       0.404348        11.0029 
 170   0.0000       0.407702        11.0941 
 171   0.0000       0.414660        11.2835 
 172   0.0000       0.422672        11.5015 
 173   0.0000       0.424146        11.5416 
 174   0.0000       0.428611        11.6631 
 175   0.0000       0.430798        11.7226 
 176   0.0000       0.436572        11.8797 
 177   0.0000       0.439498        11.9594 
 178   0.0000       0.444812        12.1039 
 179   0.0000       0.445423        12.1206 
 180   0.0000       0.449406        12.2289 
 181   0.0000       0.453765        12.3476 
 182   0.0000       0.457611        12.4522 
 183   0.0000       0.461782        12.5657 
 184   0.0000       0.468870        12.7586 
 185   0.0000       0.476303        12.9609 
 186   0.0000       0.481094        13.0912 
 187   0.0000       0.487767        13.2728 
 188   0.0000       0.488717        13.2987 
 189   0.0000       0.494260        13.4495 
 190   0.0000       0.504730        13.7344 
 191   0.0000       0.508818        13.8457 
 192   0.0000       0.512625        13.9492 
 193   0.0000       0.517877        14.0921 
 194   0.0000       0.525750        14.3064 
 195   0.0000       0.528149        14.3717 
 196   0.0000       0.532503        14.4901 
 197   0.0000       0.541596        14.7376 
 198   0.0000       0.549849        14.9621 
 199   0.0000       0.564496        15.3607 
 200   0.0000       0.572311        15.5734 
 201   0.0000       0.580162        15.7870 
 202   0.0000       0.585463        15.9313 
 203   0.0000       0.589498        16.0411 
 204   0.0000       0.595247        16.1975 
 205   0.0000       0.598785        16.2938 
 206   0.0000       0.604836        16.4584 
 207   0.0000       0.607525        16.5316 
 208   0.0000       0.611590        16.6422 
 209   0.0000       0.617106        16.7923 
 210   0.0000       0.621944        16.9240 
 211   0.0000       0.623974        16.9792 
 212   0.0000       0.630161        17.1475 
 213   0.0000       0.637254        17.3406 
 214   0.0000       0.640908        17.4400 
 215   0.0000       0.645745        17.5716 
 216   0.0000       0.650473        17.7003 
 217   0.0000       0.652468        17.7545 
 218   0.0000       0.656734        17.8706 
 219   0.0000       0.660954        17.9855 
 220   0.0000       0.669134        18.2081 
 221   0.0000       0.674954        18.3664 
 222   0.0000       0.676651        18.4126 
 223   0.0000       0.689079        18.7508 
 224   0.0000       0.695553        18.9270 
 225   0.0000       0.699609        19.0373 
 226   0.0000       0.703874        19.1534 
 227   0.0000       0.705310        19.1925 
 228   0.0000       0.710578        19.3358 
 229   0.0000       0.720048        19.5935 
 230   0.0000       0.723612        19.6905 
 231   0.0000       0.729675        19.8555 
 232   0.0000       0.732479        19.9318 
 233   0.0000       0.735384        20.0108 
 234   0.0000       0.743717        20.2376 
 235   0.0000       0.756735        20.5918 
 236   0.0000       0.761516        20.7219 
 237   0.0000       0.765979        20.8434 
 238   0.0000       0.767865        20.8947 
 239   0.0000       0.779204        21.2032 
 240   0.0000       0.788625        21.4596 
 241   0.0000       0.789034        21.4707 
 242   0.0000       0.795359        21.6428 
 243   0.0000       0.806738        21.9525 
 244   0.0000       0.814913        22.1749 
 245   0.0000       0.818501        22.2725 
 246   0.0000       0.824872        22.4459 
 247   0.0000       0.828962        22.5572 
 248   0.0000       0.831669        22.6309 
 249   0.0000       0.837365        22.7859 
 250   0.0000       0.843183        22.9442 
 251   0.0000       0.846339        23.0300 
 252   0.0000       0.861742        23.4492 
 253   0.0000       0.863486        23.4966 
 254   0.0000       0.872410        23.7395 
 255   0.0000       0.879201        23.9243 
 256   0.0000       0.883119        24.0309 
 257   0.0000       0.891024        24.2460 
 258   0.0000       0.898034        24.4367 
 259   0.0000       0.902736        24.5647 
 260   0.0000       0.917439        24.9648 
 261   0.0000       0.922602        25.1053 
 262   0.0000       0.933223        25.3943 
 263   0.0000       0.943086        25.6627 
 264   0.0000       0.948938        25.8219 
 265   0.0000       0.957104        26.0441 
 266   0.0000       0.959353        26.1053 
 267   0.0000       0.965374        26.2692 
 268   0.0000       0.966864        26.3097 
 269   0.0000       0.971403        26.4332 
 270   0.0000       0.985247        26.8099 
 271   0.0000       0.988823        26.9072 
 272   0.0000       0.999676        27.2026 
 273   0.0000       1.008487        27.4423 
 274   0.0000       1.012582        27.5538 
 275   0.0000       1.023020        27.8378 
 276   0.0000       1.028368        27.9833 
 277   0.0000       1.042101        28.3570 
 278   0.0000       1.049930        28.5700 
 279   0.0000       1.055375        28.7182 
 280   0.0000       1.057807        28.7844 
 281   0.0000       1.075739        29.2724 
 282   0.0000       1.086023        29.5522 
 283   0.0000       1.093171        29.7467 
 284   0.0000       1.099709        29.9246 
 285   0.0000       1.103337        30.0233 
 286   0.0000       1.114791        30.3350 
 287   0.0000       1.131176        30.7809 
 288   0.0000       1.134184        30.8627 
 289   0.0000       1.140470        31.0338 
 290   0.0000       1.158759        31.5314 
 291   0.0000       1.162673        31.6380 
 292   0.0000       1.169517        31.8242 
 293   0.0000       1.181544        32.1514 
 294   0.0000       1.193135        32.4668 
 295   0.0000       1.211736        32.9730 
 296   0.0000       1.216087        33.0914 
 297   0.0000       1.218490        33.1568 
 298   0.0000       1.224828        33.3293 
 299   0.0000       1.231050        33.4986 
 300   0.0000       1.235407        33.6171 
 301   0.0000       1.249249        33.9938 
 302   0.0000       1.257052        34.2061 
 303   0.0000       1.261461        34.3261 
 304   0.0000       1.264371        34.4053 
 305   0.0000       1.279453        34.8157 
 306   0.0000       1.283371        34.9223 
 307   0.0000       1.292936        35.1826 
 308   0.0000       1.301442        35.4140 
 309   0.0000       1.307031        35.5661 
 310   0.0000       1.316241        35.8167 
 311   0.0000       1.326382        36.0927 
 312   0.0000       1.327162        36.1139 
 313   0.0000       1.332893        36.2699 
 314   0.0000       1.340831        36.4859 
 315   0.0000       1.362835        37.0846 
 316   0.0000       1.374501        37.4021 
 317   0.0000       1.389803        37.8185 
 318   0.0000       1.396677        38.0055 
 319   0.0000       1.403495        38.1910 
 320   0.0000       1.405508        38.2458 
 321   0.0000       1.414068        38.4787 
 322   0.0000       1.424411        38.7602 
 323   0.0000       1.432247        38.9734 
 324   0.0000       1.437179        39.1076 
 325   0.0000       1.442644        39.2563 
 326   0.0000       1.453449        39.5504 
 327   0.0000       1.459767        39.7223 
 328   0.0000       1.466067        39.8937 
 329   0.0000       1.468857        39.9696 
 330   0.0000       1.474177        40.1144 
 331   0.0000       1.476141        40.1678 
 332   0.0000       1.478649        40.2361 
 333   0.0000       1.482818        40.3495 
 334   0.0000       1.495060        40.6826 
 335   0.0000       1.509249        41.0687 
 336   0.0000       1.511725        41.1361 
 337   0.0000       1.513340        41.1801 
 338   0.0000       1.519175        41.3388 
 339   0.0000       1.529411        41.6174 
 340   0.0000       1.538360        41.8609 
 341   0.0000       1.544354        42.0240 
 342   0.0000       1.550957        42.2037 
 343   0.0000       1.554501        42.3001 
 344   0.0000       1.559110        42.4255 
 345   0.0000       1.569207        42.7003 
 346   0.0000       1.574911        42.8555 
 347   0.0000       1.579005        42.9669 
 348   0.0000       1.590901        43.2906 
 349   0.0000       1.594423        43.3865 
 350   0.0000       1.605280        43.6819 
 351   0.0000       1.611553        43.8526 
 352   0.0000       1.619771        44.0762 
 353   0.0000       1.620807        44.1044 
 354   0.0000       1.637076        44.5471 
 355   0.0000       1.645026        44.7634 
 356   0.0000       1.659125        45.1471 
 357   0.0000       1.661987        45.2250 
 358   0.0000       1.668255        45.3955 
 359   0.0000       1.671763        45.4910 
 360   0.0000       1.679340        45.6972 
 361   0.0000       1.688930        45.9581 
 362   0.0000       1.693884        46.0929 
 363   0.0000       1.702911        46.3386 
 364   0.0000       1.709049        46.5056 
 365   0.0000       1.714632        46.6575 
 366   0.0000       1.724338        46.9216 
 367   0.0000       1.731630        47.1201 
 368   0.0000       1.738553        47.3084 
 369   0.0000       1.756242        47.7898 
 370   0.0000       1.774856        48.2963 
 371   0.0000       1.792947        48.7886 
 372   0.0000       1.806230        49.1500 
 373   0.0000       1.807911        49.1958 
 374   0.0000       1.818558        49.4855 
 375   0.0000       1.824475        49.6465 
 376   0.0000       1.827710        49.7345 
 377   0.0000       1.837857        50.0106 
 378   0.0000       1.843553        50.1656 
 379   0.0000       1.858230        50.5650 
 380   0.0000       1.861820        50.6627 
 381   0.0000       1.867248        50.8104 
 382   0.0000       1.870107        50.8882 
 383   0.0000       1.872930        50.9650 
 384   0.0000       1.890940        51.4551 
 385   0.0000       1.904669        51.8287 
 386   0.0000       1.923126        52.3309 
 387   0.0000       1.932993        52.5994 
 388   0.0000       1.940039        52.7911 
 389   0.0000       1.946184        52.9584 
 390   0.0000       1.960231        53.3406 
 391   0.0000       1.962604        53.4052 
 392   0.0000       1.969992        53.6062 
 393   0.0000       1.976565        53.7851 
 394   0.0000       1.982134        53.9366 
 395   0.0000       1.991692        54.1967 
 396   0.0000       1.998469        54.3811 
 397   0.0000       2.003032        54.5053 
 398   0.0000       2.025267        55.1103 
 399   0.0000       2.032377        55.3038 
 400   0.0000       2.036765        55.4232 
 401   0.0000       2.042608        55.5822 
 402   0.0000       2.049228        55.7623 
 403   0.0000       2.057592        55.9899 
 404   0.0000       2.062567        56.1253 
 405   0.0000       2.075879        56.4875 
 406   0.0000       2.089180        56.8495 
 407   0.0000       2.099214        57.1225 
 408   0.0000       2.101297        57.1792 
 409   0.0000       2.112691        57.4892 
 410   0.0000       2.115041        57.5532 
 411   0.0000       2.118257        57.6407 
 412   0.0000       2.127849        57.9017 
 413   0.0000       2.131066        57.9892 
 414   0.0000       2.141891        58.2838 
 415   0.0000       2.152475        58.5718 
 416   0.0000       2.160588        58.7926 
 417   0.0000       2.170269        59.0560 
 418   0.0000       2.185370        59.4669 
 419   0.0000       2.194300        59.7099 
 420   0.0000       2.201311        59.9007 
 421   0.0000       2.238229        60.9053 
 422   0.0000       2.243476        61.0481 
 423   0.0000       2.251819        61.2751 
 424   0.0000       2.256244        61.3955 
 425   0.0000       2.258311        61.4518 
 426   0.0000       2.259785        61.4919 
 427   0.0000       2.277206        61.9659 
 428   0.0000       2.289933        62.3122 
 429   0.0000       2.296024        62.4780 
 430   0.0000       2.306942        62.7751 
 431   0.0000       2.309752        62.8516 
 432   0.0000       2.321901        63.1821 
 433   0.0000       2.326127        63.2971 
 434   0.0000       2.333358        63.4939 
 435   0.0000       2.337512        63.6069 
 436   0.0000       2.351572        63.9895 
 437   0.0000       2.355185        64.0878 
 438   0.0000       2.361292        64.2540 
 439   0.0000       2.379409        64.7470 
 440   0.0000       2.392295        65.0976 
 441   0.0000       2.398210        65.2586 
 442   0.0000       2.404629        65.4333 
 443   0.0000       2.416866        65.7663 
 444   0.0000       2.418045        65.7984 
 445   0.0000       2.453753        66.7700 
 446   0.0000       2.468057        67.1592 
 447   0.0000       2.484796        67.6147 
 448   0.0000       2.488831        67.7245 
 449   0.0000       2.501539        68.0703 
 450   0.0000       2.508362        68.2560 
 451   0.0000       2.514019        68.4099 
 452   0.0000       2.518405        68.5293 
 453   0.0000       2.523166        68.6589 
 454   0.0000       2.526371        68.7460 
 455   0.0000       2.530313        68.8533 
 456   0.0000       2.544747        69.2461 
 457   0.0000       2.561906        69.7130 
 458   0.0000       2.571791        69.9820 
 459   0.0000       2.572612        70.0043 
 460   0.0000       2.577632        70.1409 
 461   0.0000       2.581775        70.2537 
 462   0.0000       2.590090        70.4799 
 463   0.0000       2.592421        70.5434 
 464   0.0000       2.606726        70.9326 
 465   0.0000       2.610425        71.0333 
 466   0.0000       2.617169        71.2168 
 467   0.0000       2.623923        71.4006 
 468   0.0000       2.627459        71.4968 
 469   0.0000       2.637841        71.7793 
 470   0.0000       2.648170        72.0604 
 471   0.0000       2.652717        72.1841 
 472   0.0000       2.663405        72.4749 
 473   0.0000       2.667298        72.5809 
 474   0.0000       2.670429        72.6661 
 475   0.0000       2.677903        72.8694 
 476   0.0000       2.681158        72.9580 
 477   0.0000       2.683895        73.0325 
 478   0.0000       2.688138        73.1480 
 479   0.0000       2.698311        73.4248 
 480   0.0000       2.703707        73.5716 
 481   0.0000       2.714700        73.8707 
 482   0.0000       2.724290        74.1317 
 483   0.0000       2.727031        74.2063 
[...]
 12:    102.34   0.001271    6.42  0.003875  ( 0.026040  0.006212  0.056195)
 13:    108.48   0.000412    2.08  0.001186  (-0.034205 -0.002181  0.003416)
 14:    113.31   0.000866    4.37  0.002384  (-0.017837 -0.009025  0.044546)
 15:    134.26   0.000275    1.39  0.000640  (-0.019740  0.015582  0.002688)
 16:    137.67   0.000026    0.13  0.000059  (-0.005158  0.003348 -0.004605)
 17:    168.33   0.000658    3.33  0.001220  (-0.008392  0.006864  0.033207)
 18:    181.95   0.000027    0.14  0.000047  ( 0.001917  0.004252 -0.005011)
 19:    207.75   0.000574    2.90  0.000862  ( 0.021304 -0.019176 -0.006355)
 20:    214.92   0.001047    5.29  0.001520  (-0.034456  0.013513 -0.012236)
 21:    238.94   0.000509    2.57  0.000665  (-0.016986 -0.018298  0.006441)
 22:    267.48   0.000192    0.97  0.000224  (-0.005527  0.000979 -0.013871)
 23:    278.51   0.000776    3.92  0.000870  ( 0.009246 -0.005573 -0.027450)
 24:    303.92   0.005110   25.82  0.005247  ( 0.067356 -0.025541  0.007577)
 25:    308.67   0.000511    2.58  0.000516  ( 0.020082 -0.010559 -0.001203)
 26:    351.91   0.002757   13.93  0.002445  ( 0.045525 -0.019236  0.001432)
 27:    398.30   0.000075    0.38  0.000058  (-0.007122 -0.002773 -0.000083)
 28:    409.45   0.002453   12.40  0.001870  (-0.041737  0.011195  0.001504)
 29:    431.07   0.000266    1.34  0.000193  (-0.002512 -0.000054  0.013651)
 30:    447.07   0.000469    2.37  0.000327  (-0.015216 -0.009779  0.000051)
 31:    462.41   0.002241   11.32  0.001512  (-0.006506 -0.007554 -0.037589)
 32:    479.48   0.003435   17.36  0.002236  (-0.043662 -0.018055  0.001836)
 33:    492.52   0.001903    9.62  0.001206  (-0.019593 -0.028472 -0.003328)
 34:    503.50   0.002018   10.20  0.001250  ( 0.024781 -0.023808  0.008341)
 35:    544.83   0.000296    1.50  0.000169  (-0.007494 -0.005027  0.009384)
 36:    563.61   0.004770   24.11  0.002641  (-0.049901 -0.012292  0.000023)
 37:    626.91   0.009360   47.30  0.004659  ( 0.068123 -0.003536 -0.002462)
 38:    629.34   0.000725    3.66  0.000359  ( 0.018745 -0.002464 -0.001375)
 39:    659.80   0.000970    4.90  0.000459  ( 0.002947 -0.004115 -0.020809)
 40:    679.82   0.005576   28.18  0.002560  ( 0.003486  0.002792  0.050397)
 41:    682.79   0.000970    4.90  0.000443  (-0.017397 -0.004954  0.010776)
 42:    700.80   0.005542   28.01  0.002468  ( 0.001723 -0.004517 -0.049442)
 43:    729.81   0.000929    4.69  0.000397  ( 0.004950  0.004692  0.018725)
 44:    753.33   0.023957  121.07  0.009924  ( 0.099151  0.008015 -0.005381)
 45:    769.90   0.024329  122.95  0.009861  ( 0.003588 -0.003017  0.099193)
 46:    786.98   0.007091   35.83  0.002812  ( 0.009160 -0.002716  0.052158)
 47:    805.21   0.002340   11.82  0.000907  (-0.002217  0.006942 -0.029218)
 48:    815.11   0.003111   15.72  0.001191  (-0.010799  0.032482 -0.004386)
 49:    841.38   0.000291    1.47  0.000108  (-0.000588 -0.000712 -0.010351)
 50:    867.82   0.003809   19.25  0.001370  ( 0.036765  0.000540  0.004228)
 51:    871.57   0.005994   30.29  0.002146  ( 0.009242 -0.005206 -0.045097)
 52:    883.51   0.006229   31.48  0.002200  ( 0.006074 -0.003988 -0.046340)
 53:    897.43   0.000481    2.43  0.000167  ( 0.000493  0.003628  0.012405)
 54:    932.56   0.004127   20.85  0.001381  (-0.032656  0.016919  0.005310)
 55:    946.96   0.004021   20.32  0.001325  (-0.027329 -0.023996 -0.001511)
 56:    960.20   0.000078    0.39  0.000025  ( 0.001156  0.004846  0.000737)
 57:    975.28   0.000097    0.49  0.000031  (-0.002705  0.001105 -0.004730)
 58:    982.78   0.000061    0.31  0.000019  (-0.001283  0.000681 -0.004169)
 59:    992.92   0.002102   10.62  0.000661  (-0.012309  0.022565  0.000131)
 60:   1014.09   0.008240   41.64  0.002536  ( 0.030760  0.033004  0.022364)
 61:   1015.63   0.030207  152.66  0.009282  (-0.077690 -0.048109  0.030516)
 62:   1016.22   0.017820   90.05  0.005472  ( 0.023679 -0.011089  0.069199)
 63:   1066.12   0.012343   62.38  0.003613  (-0.039520  0.044889  0.006004)
 64:   1090.83   0.014704   74.31  0.004206  (-0.060878 -0.022112 -0.003357)
 65:   1098.49   0.030357  153.41  0.008624  (-0.086501  0.033441 -0.004804)
 66:   1100.33   0.024274  122.67  0.006884  (-0.082362  0.005511 -0.008394)
 67:   1120.53   0.006246   31.57  0.001740  ( 0.022026 -0.035418  0.000024)
 68:   1148.59   0.000335    1.69  0.000091  ( 0.000170 -0.000546  0.009526)
 69:   1151.89   0.000256    1.30  0.000069  (-0.000534 -0.000776 -0.008280)
 70:   1170.22   0.003867   19.54  0.001031  ( 0.008406 -0.030920  0.002156)
 71:   1177.24   0.020522  103.71  0.005440  ( 0.040598 -0.061506  0.002961)
 72:   1181.53   0.016820   85.00  0.004442  ( 0.065884  0.009791  0.002424)
 73:   1189.99   0.015919   80.45  0.004175  (-0.063290  0.012090 -0.004763)
 74:   1207.07   0.011060   55.89  0.002859  ( 0.010174  0.052434 -0.002546)
 75:   1251.83   0.178932  904.25  0.044605  ( 0.201893  0.061650 -0.006619)
 76:   1256.83   0.108819  549.93  0.027019  (-0.162867  0.014412 -0.016908)
 77:   1284.56   0.033288  168.22  0.008087  (-0.048975  0.073668  0.016163)
 78:   1296.00   0.077907  393.71  0.018759  ( 0.130322 -0.041389 -0.007889)
 79:   1301.40   0.031349  158.42  0.007517  ( 0.083627 -0.022150 -0.005740)
 80:   1317.92   0.002121   10.72  0.000502  ( 0.009089  0.020474  0.000657)
 81:   1339.41   0.019112   96.58  0.004453  (-0.040082 -0.053094 -0.005209)
 82:   1360.32   0.011865   59.96  0.002722  (-0.012458 -0.050585  0.002802)
 83:   1402.12   0.016191   81.82  0.003604  ( 0.045866  0.036512  0.012916)
 84:   1425.52   0.008762   44.28  0.001918  (-0.014465  0.040560  0.007981)
 85:   1446.81   0.025505  128.89  0.005501  (-0.067955 -0.029714 -0.000627)
 86:   1451.58   0.050101  253.19  0.010771  ( 0.085378  0.058995  0.000958)
 87:   1467.22   0.002575   13.01  0.000548  ( 0.001778 -0.002540 -0.023197)
 88:   1472.09   0.078325  395.82  0.016604  ( 0.117820  0.052083  0.003125)
 89:   1475.83   0.002258   11.41  0.000478  (-0.015586  0.014890 -0.003594)
 90:   1477.69   0.001998   10.10  0.000422  ( 0.004426  0.001629 -0.019991)
 91:   1485.29   0.014805   74.82  0.003110  ( 0.051027  0.021403 -0.006974)
 92:   1497.76   0.000506    2.56  0.000106  (-0.003892 -0.007463 -0.005888)
 93:   1511.85   0.010498   53.05  0.002167  ( 0.027297 -0.037417 -0.004672)
 94:   1543.47   0.062353  315.11  0.012607  (-0.058119  0.095795  0.007225)
 95:   1568.46   0.065132  329.15  0.012959  (-0.107582 -0.037204 -0.000860)
 96:   1592.21   0.012157   61.43  0.002383  ( 0.047518 -0.009860 -0.005237)
 97:   1597.78   0.014908   75.34  0.002912  (-0.048956 -0.020655  0.009400)
 98:   1612.42   0.206679  1044.47  0.040000  ( 0.190997 -0.058762 -0.008205)
 99:   1614.74   0.002618   13.23  0.000506  (-0.015141  0.016537  0.001824)
100:   1677.21   0.099476  502.71  0.018509  ( 0.044625  0.128518  0.000444)
101:   2468.61   0.174697  882.85  0.022084  ( 0.146525  0.024695  0.002084)
102:   2989.87   0.010793   54.54  0.001127  (-0.003634 -0.033335  0.001452)
103:   3025.13   0.005653   28.57  0.000583  (-0.023551 -0.005043 -0.001757)
104:   3052.75   0.008189   41.38  0.000837  ( 0.003151  0.000815  0.028749)
105:   3099.90   0.004416   22.32  0.000445  (-0.001748  0.000403  0.021008)
106:   3116.10   0.005296   26.76  0.000530  ( 0.022421  0.004671 -0.002414)
107:   3134.42   0.003256   16.45  0.000324  ( 0.009641 -0.015191  0.000655)
108:   3143.00   0.001613    8.15  0.000160  (-0.000099 -0.012643  0.000563)
109:   3158.96   0.002475   12.51  0.000244  (-0.013371  0.007993  0.001350)
110:   3159.33   0.001746    8.82  0.000172  (-0.012676  0.003426 -0.000183)
111:   3169.36   0.000149    0.75  0.000015  (-0.003651 -0.001148 -0.000074)
112:   3172.07   0.002391   12.09  0.000235  ( 0.000017  0.015262 -0.001534)
113:   3173.56   0.000766    3.87  0.000075  (-0.006000  0.006239 -0.000653)
114:   3183.14   0.001024    5.17  0.000100  ( 0.007125 -0.007026  0.000493)
115:   3185.78   0.001961    9.91  0.000192  ( 0.013794  0.000012 -0.001337)
116:   3219.17   0.000428    2.17  0.000042  ( 0.004579  0.004530  0.000211)

* The epsilon (eps) is given for a Dirac delta lineshape.
** The dipole moment derivative (T) already includes vibrational overlap.

The first frequency considered to be a vibration is 6
The total number of vibrations considered is 111


--------------------------
THERMOCHEMISTRY AT 298.15K
--------------------------

Temperature         ... 298.15 K
Pressure            ... 1.00 atm
Total Mass          ... 312.32 AMU

Throughout the following assumptions are being made:
  (1) The electronic state is orbitally nondegenerate
  (2) There are no thermally accessible electronically excited states
  (3) Hindered rotations indicated by low frequency modes are not
      treated as such but are treated as vibrations and this may
      cause some error
  (4) All equations used are the standard statistical mechanics
      equations for an ideal gas
  (5) All vibrations are strictly harmonic

freq.      13.83  E(vib)   ...       0.57 
freq.      16.11  E(vib)   ...       0.57 
freq.      41.09  E(vib)   ...       0.54 
freq.      47.68  E(vib)   ...       0.53 
freq.      52.27  E(vib)   ...       0.52 
freq.      76.20  E(vib)   ...       0.49 
freq.     102.34  E(vib)   ...       0.46 
freq.     108.48  E(vib)   ...       0.45 
freq.     113.31  E(vib)   ...       0.45 
freq.     134.26  E(vib)   ...       0.42 
freq.     137.67  E(vib)   ...       0.42 
freq.     168.33  E(vib)   ...       0.38 
freq.     181.95  E(vib)   ...       0.37 
freq.     207.75  E(vib)   ...       0.34 
freq.     214.92  E(vib)   ...       0.34 
freq.     238.94  E(vib)   ...       0.32 
freq.     267.48  E(vib)   ...       0.29 
freq.     278.51  E(vib)   ...       0.28 
freq.     303.92  E(vib)   ...       0.26 
freq.     308.67  E(vib)   ...       0.26 
freq.     351.91  E(vib)   ...       0.23 
freq.     398.30  E(vib)   ...       0.20 
freq.     409.45  E(vib)   ...       0.19 
freq.     431.07  E(vib)   ...       0.18 
freq.     447.07  E(vib)   ...       0.17 
freq.     462.41  E(vib)   ...       0.16 
freq.     479.48  E(vib)   ...       0.15 
freq.     492.52  E(vib)   ...       0.14 
freq.     503.50  E(vib)   ...       0.14 
freq.     544.83  E(vib)   ...       0.12 
freq.     563.61  E(vib)   ...       0.11 
freq.     626.91  E(vib)   ...       0.09 
freq.     629.34  E(vib)   ...       0.09 
freq.     659.80  E(vib)   ...       0.08 
freq.     679.82  E(vib)   ...       0.08 
freq.     682.79  E(vib)   ...       0.08 
freq.     700.80  E(vib)   ...       0.07 
freq.     729.81  E(vib)   ...       0.06 
freq.     753.33  E(vib)   ...       0.06 
freq.     769.90  E(vib)   ...       0.05 
freq.     786.98  E(vib)   ...       0.05 
freq.     805.21  E(vib)   ...       0.05 
freq.     815.11  E(vib)   ...       0.05 
freq.     841.38  E(vib)   ...       0.04 
freq.     867.82  E(vib)   ...       0.04 
freq.     871.57  E(vib)   ...       0.04 
freq.     883.51  E(vib)   ...       0.04 
freq.     897.43  E(vib)   ...       0.03 
freq.     932.56  E(vib)   ...       0.03 
freq.     946.96  E(vib)   ...       0.03 
freq.     960.20  E(vib)   ...       0.03 
freq.     975.28  E(vib)   ...       0.03 
freq.     982.78  E(vib)   ...       0.02 
freq.     992.92  E(vib)   ...       0.02 
freq.    1014.09  E(vib)   ...       0.02 
freq.    1015.63  E(vib)   ...       0.02 
freq.    1016.22  E(vib)   ...       0.02 
freq.    1066.12  E(vib)   ...       0.02 
freq.    1090.83  E(vib)   ...       0.02 
freq.    1098.49  E(vib)   ...       0.02 
freq.    1100.33  E(vib)   ...       0.02 
freq.    1120.53  E(vib)   ...       0.01 
freq.    1148.59  E(vib)   ...       0.01 
freq.    1151.89  E(vib)   ...       0.01 
freq.    1170.22  E(vib)   ...       0.01 
freq.    1177.24  E(vib)   ...       0.01 
freq.    1181.53  E(vib)   ...       0.01 
freq.    1189.99  E(vib)   ...       0.01 
freq.    1207.07  E(vib)   ...       0.01 
freq.    1251.83  E(vib)   ...       0.01 
freq.    1256.83  E(vib)   ...       0.01 
freq.    1284.56  E(vib)   ...       0.01 
freq.    1296.00  E(vib)   ...       0.01 
freq.    1301.40  E(vib)   ...       0.01 
freq.    1317.92  E(vib)   ...       0.01 
freq.    1339.41  E(vib)   ...       0.01 
freq.    1360.32  E(vib)   ...       0.01 
freq.    1402.12  E(vib)   ...       0.00 
freq.    1425.52  E(vib)   ...       0.00 
freq.    1446.81  E(vib)   ...       0.00 
freq.    1451.58  E(vib)   ...       0.00 
freq.    1467.22  E(vib)   ...       0.00 
freq.    1472.09  E(vib)   ...       0.00 
freq.    1475.83  E(vib)   ...       0.00 
freq.    1477.69  E(vib)   ...       0.00 
freq.    1485.29  E(vib)   ...       0.00 
freq.    1497.76  E(vib)   ...       0.00 
freq.    1511.85  E(vib)   ...       0.00 
freq.    1543.47  E(vib)   ...       0.00 
freq.    1568.46  E(vib)   ...       0.00 
freq.    1592.21  E(vib)   ...       0.00 
freq.    1597.78  E(vib)   ...       0.00 
freq.    1612.42  E(vib)   ...       0.00 
freq.    1614.74  E(vib)   ...       0.00 
freq.    1677.21  E(vib)   ...       0.00 
freq.    2468.61  E(vib)   ...       0.00 
freq.    2989.87  E(vib)   ...       0.00 
freq.    3025.13  E(vib)   ...       0.00 
freq.    3052.75  E(vib)   ...       0.00 
freq.    3099.90  E(vib)   ...       0.00 
freq.    3116.10  E(vib)   ...       0.00 
freq.    3134.42  E(vib)   ...       0.00 
freq.    3143.00  E(vib)   ...       0.00 
freq.    3158.96  E(vib)   ...       0.00 
freq.    3159.33  E(vib)   ...       0.00 
freq.    3169.36  E(vib)   ...       0.00 
freq.    3172.07  E(vib)   ...       0.00 
freq.    3173.56  E(vib)   ...       0.00 
freq.    3183.14  E(vib)   ...       0.00 
freq.    3185.78  E(vib)   ...       0.00 
freq.    3219.17  E(vib)   ...       0.00 

------------
INNER ENERGY
------------

The inner energy is: U= E(el) + E(ZPE) + E(vib) + E(rot) + E(trans)
    E(el)   - is the total energy from the electronic structure calculation
              = E(kin-el) + E(nuc-el) + E(el-el) + E(nuc-nuc)
    E(ZPE)  - the the zero temperature vibrational energy from the frequency calculation
    E(vib)  - the the finite temperature correction to E(ZPE) due to population
              of excited vibrational states
    E(rot)  - is the rotational thermal energy
    E(trans)- is the translational thermal energy

Summary of contributions to the inner energy U:
Electronic energy                ...  -1072.34054614 Eh
Zero point energy                ...      0.29802607 Eh     187.01 kcal/mol
Thermal vibrational correction   ...      0.01836122 Eh      11.52 kcal/mol
Thermal rotational correction    ...      0.00141627 Eh       0.89 kcal/mol
Thermal translational correction ...      0.00141627 Eh       0.89 kcal/mol
-----------------------------------------------------------------------
Total thermal energy                  -1072.02132630 Eh


Summary of corrections to the electronic energy:
(perhaps to be used in another calculation)
Total thermal correction                  0.02119376 Eh      13.30 kcal/mol
Non-thermal (ZPE) correction              0.29802607 Eh     187.01 kcal/mol
-----------------------------------------------------------------------
Total correction                          0.31921984 Eh     200.31 kcal/mol


--------
ENTHALPY
--------

The enthalpy is H = U + kB*T
                kB is Boltzmann's constant
Total free energy                 ...  -1072.02132630 Eh 
Thermal Enthalpy correction       ...      0.00094421 Eh       0.59 kcal/mol
-----------------------------------------------------------------------
Total Enthalpy                    ...  -1072.02038209 Eh


Note: Only C1 symmetry has been detected, increase convergence thresholds 
      if your molecule has a higher symmetry. Symmetry factor of 1.0 is   
      used for the rotational entropy correction. 
 

Note: Rotational entropy computed according to Herzberg 
Infrared and Raman Spectra, Chapter V,1, Van Nostrand Reinhold, 1945 
Point Group:  C1, Symmetry Number:   1  
Rotational constants in cm-1:     0.030729     0.002482     0.002307 

Vibrational entropy computed according to the QRRHO of S. Grimme
Chem.Eur.J. 2012 18 9955


-------
ENTROPY
-------

The entropy contributions are T*S = T*(S(el)+S(vib)+S(rot)+S(trans))
     S(el)   - electronic entropy
     S(vib)  - vibrational entropy
     S(rot)  - rotational entropy
     S(trans)- translational entropy
The entropies will be listed as multiplied by the temperature to get
units of energy

Electronic entropy                ...      0.00000000 Eh      0.00 kcal/mol
Vibrational entropy               ...      0.03331238 Eh     20.90 kcal/mol
Rotational entropy                ...      0.01685323 Eh     10.58 kcal/mol
Translational entropy             ...      0.02048418 Eh     12.85 kcal/mol
-----------------------------------------------------------------------
Final entropy term                ...      0.07064979 Eh     44.33 kcal/mol

In case the symmetry of your molecule has not been determined correctly
or in case you have a reason to use a different symmetry number we print 
out the resulting rotational entropy values for sn=1,12 :
 --------------------------------------------------------
|  sn= 1 | S(rot)=       0.01685323 Eh     10.58 kcal/mol|
|  sn= 2 | S(rot)=       0.01619878 Eh     10.16 kcal/mol|
|  sn= 3 | S(rot)=       0.01581594 Eh      9.92 kcal/mol|
|  sn= 4 | S(rot)=       0.01554432 Eh      9.75 kcal/mol|
|  sn= 5 | S(rot)=       0.01533363 Eh      9.62 kcal/mol|
|  sn= 6 | S(rot)=       0.01516149 Eh      9.51 kcal/mol|
|  sn= 7 | S(rot)=       0.01501594 Eh      9.42 kcal/mol|
|  sn= 8 | S(rot)=       0.01488986 Eh      9.34 kcal/mol|
|  sn= 9 | S(rot)=       0.01477865 Eh      9.27 kcal/mol|
|  sn=10 | S(rot)=       0.01467918 Eh      9.21 kcal/mol|
|  sn=11 | S(rot)=       0.01458919 Eh      9.15 kcal/mol|
|  sn=12 | S(rot)=       0.01450703 Eh      9.10 kcal/mol|
 --------------------------------------------------------


-------------------
GIBBS FREE ENERGY
-------------------

The Gibbs free energy is G = H - T*S

Total enthalpy                    ...  -1072.02038209 Eh 
Total entropy correction          ...     -0.07064979 Eh    -44.33 kcal/mol
-----------------------------------------------------------------------
Final Gibbs free energy         ...  -1072.09103188 Eh

For completeness - the Gibbs free energy minus the electronic energy
G-E(el)                           ...      0.24951425 Eh    156.57 kcal/mol



Timings for individual modules:

Sum of individual times         ...    47989.205 sec (= 799.820 min)
GTO integral calculation        ...       34.358 sec (=   0.573 min)   0.1 %
SCF iterations                  ...     2798.365 sec (=  46.639 min)   5.8 %
SCF Gradient evaluation         ...      771.838 sec (=  12.864 min)   1.6 %
Geometry relaxation             ...        2.381 sec (=   0.040 min)   0.0 %
Numerical frequency calculation ...    44382.263 sec (= 739.704 min)  92.5 %
                             ****ORCA TERMINATED NORMALLY****
TOTAL RUN TIME: 0 days 13 hours 17 minutes 47 seconds 678 msec
‘Aldol_Cry.cpcm’ -> ‘/home/rothe/Calc/Li_Path/THF/Aldol_Cry/Aldol_Cry.cpcm’
‘Aldol_Cry.densities’ -> ‘/home/rothe/Calc/Li_Path/THF/Aldol_Cry/Aldol_Cry.densities’
‘Aldol_Cry.engrad’ -> ‘/home/rothe/Calc/Li_Path/THF/Aldol_Cry/Aldol_Cry.engrad’
‘Aldol_Cry.gbw’ -> ‘/home/rothe/Calc/Li_Path/THF/Aldol_Cry/Aldol_Cry.gbw’
‘Aldol_Cry.hess’ -> ‘/home/rothe/Calc/Li_Path/THF/Aldol_Cry/Aldol_Cry.hess’
‘Aldol_Cry.job’ -> ‘/home/rothe/Calc/Li_Path/THF/Aldol_Cry/Aldol_Cry.job’
‘Aldol_Cry.opt’ -> ‘/home/rothe/Calc/Li_Path/THF/Aldol_Cry/Aldol_Cry.opt’
‘Aldol_Cry_property.txt’ -> ‘/home/rothe/Calc/Li_Path/THF/Aldol_Cry/Aldol_Cry_property.txt’
‘Aldol_Cry_trj.xyz’ -> ‘/home/rothe/Calc/Li_Path/THF/Aldol_Cry/Aldol_Cry_trj.xyz’
‘Aldol_Cry.xyz’ -> ‘/home/rothe/Calc/Li_Path/THF/Aldol_Cry/Aldol_Cry.xyz’
