59
* (null), Energy   -1000.0000000
C    -3.048825    2.526346   -0.620558    0.001992    0.022649   -0.033462
C    -3.225867    1.520462    0.341113   -0.010229    0.042398   -0.015027
C    -2.106291    0.957572    0.959750   -0.017845    0.050496    0.006125
C    -0.820575    1.383092    0.641376   -0.013494    0.039462    0.009054
C    -0.644490    2.389407   -0.324825   -0.001066    0.019041   -0.010045
C    -1.759942    2.952851   -0.951184    0.006659    0.010538   -0.031406
H    -1.621856    3.729143   -1.697072    0.016111   -0.004921   -0.045825
H    -4.217431    1.175085    0.610576   -0.013913    0.051576   -0.016831
H    -2.250667    0.177242    1.701541   -0.027334    0.065949    0.020548
H     0.033775    0.932001    1.133290   -0.019625    0.047043    0.026680
C     0.711111    2.884159   -0.719569    0.004991    0.007083   -0.005416
C     1.921020    2.351044    0.028759   -0.008914    0.021046    0.025508
O     0.838669    3.688943   -1.641244    0.017925   -0.012631   -0.020857
C     3.228306    3.088142   -0.295556    0.008080   -0.015946   -0.000617
H     2.033818    1.291292   -0.241006   -0.027672    0.003136    0.087676
H     1.719477    2.354173    1.105678   -0.019588    0.091556    0.024060
C     4.405976    2.428252    0.376926   -0.002514   -0.039960   -0.006694
C     3.204012    4.556257    0.101402    0.030163   -0.016869    0.001927
H     3.390063    3.044265   -1.376531   -0.014767   -0.019250   -0.003615
C     2.635569    4.993754    1.308042    0.375874   -0.085447    0.191902
C     2.685412    6.332549    1.677959    0.371467   -0.088942    0.196477
O    -4.073114    3.144096   -1.283297    0.009926    0.014191   -0.053604
C    -5.412869    2.725449   -0.965941    0.005625    0.027013   -0.054955
H    -5.552137    1.663488   -1.197454    0.001768    0.023381   -0.036160
H    -6.061464    3.333503   -1.596172    0.012961    0.018667   -0.070684
H    -5.636144    2.909396    0.090935   -0.000595    0.047731   -0.059835
C     3.309500    7.276832    0.850190    0.029331   -0.021317    0.012612
C     3.880435    6.849729   -0.359728   -0.315877    0.048303   -0.172770
C     3.823608    5.509416   -0.721879   -0.317912    0.048386   -0.180491
H     4.261712    5.187394   -1.663005   -0.606369    0.108745   -0.334684
H     4.358950    7.570911   -1.013581   -0.587251    0.101396   -0.311920
H     2.148054    4.283558    1.969852    0.665858   -0.148712    0.337267
H     2.240805    6.663823    2.611358    0.639705   -0.143388    0.342544
C     3.335268    8.690896    1.287837    0.042753   -0.025463    0.025904
O     3.985410    9.495931    0.411257   -0.264014    0.039455   -0.141223
O     2.834150    9.112955    2.322588    0.297464   -0.080457    0.171126
C     4.045543   10.895780    0.788359   -0.283130    0.039556   -0.136018
H     3.035802   11.305727    0.863149   -0.301611   -0.073470    0.228889
H     4.604451   11.379632   -0.011515   -0.614157    0.115172   -0.321972
H     4.560721   11.002202    1.745626    0.041237    0.075278   -0.313691
C     5.534569    2.052323   -0.295304    0.021663    0.005749    0.008086
C     6.682434    1.425204    0.436166    0.007086   -0.017388    0.012286
O     5.697451    2.223438   -1.591145    0.057643    0.067423    0.021526
H     4.351630    2.308250    1.454550   -0.030279   -0.098254   -0.014561
C     6.576611    0.924297    1.750300   -0.010641   -0.039494    0.002613
C     7.915757    1.325710   -0.213904    0.014218   -0.012806    0.025183
C     9.027341    0.757183    0.421227    0.003345   -0.031168    0.027922
H     8.015122    1.698061   -1.228329    0.026238    0.004619    0.032751
C     7.681373    0.359793    2.374736   -0.021179   -0.056787    0.005514
C     8.920650    0.268829    1.726838   -0.014224   -0.053174    0.018135
H     9.766677   -0.179273    2.234890   -0.022462   -0.066388    0.020341
H     5.627620    0.958706    2.274768   -0.015023   -0.041588   -0.005221
H     7.587587   -0.029229    3.385521   -0.034856   -0.072411   -0.001685
O    10.182772    0.722927   -0.322215    0.011669   -0.025665    0.040435
C    11.340839    0.142540    0.298457    0.001083   -0.042722    0.044125
H    11.621708    0.701140    1.198959   -0.005913   -0.059176    0.056528
H    12.135184    0.211220   -0.445180    0.010030   -0.035227    0.054375
H    11.159465   -0.907274    0.556904   -0.008021   -0.045952    0.024904
Li    5.766507    2.547069   -3.218662   -0.004793    0.289417    0.058581
59
* Frequency(6)  -22.7280
C    -3.048598    2.528920   -0.624361    0.001992    0.022649   -0.033462
C    -3.227030    1.525280    0.339405   -0.010229    0.042398   -0.015027
C    -2.108319    0.963310    0.960446   -0.017845    0.050496    0.006125
C    -0.822109    1.387576    0.642404   -0.013494    0.039462    0.009054
C    -0.644611    2.391571   -0.325967   -0.001066    0.019041   -0.010045
C    -1.759185    2.954049   -0.954753    0.006659    0.010538   -0.031406
H    -1.620025    3.728583   -1.702280    0.016111   -0.004921   -0.045825
H    -4.219012    1.180947    0.608663   -0.013913    0.051576   -0.016831
H    -2.253773    0.184736    1.703876   -0.027334    0.065949    0.020548
H     0.031545    0.937348    1.136322   -0.019625    0.047043    0.026680
C     0.711678    2.884964   -0.720184    0.004991    0.007083   -0.005416
C     1.920007    2.353435    0.031658   -0.008914    0.021046    0.025508
O     0.840706    3.687507   -1.643615    0.017925   -0.012631   -0.020857
C     3.229224    3.086330   -0.295626    0.008080   -0.015946   -0.000617
H     2.030673    1.291648   -0.231042   -0.027672    0.003136    0.087676
H     1.717251    2.364578    1.108412   -0.019588    0.091556    0.024060
C     4.405691    2.423710    0.376165   -0.002514   -0.039960   -0.006694
C     3.207440    4.554340    0.101621    0.030163   -0.016869    0.001927
H     3.388384    3.042077   -1.376942   -0.014767   -0.019250   -0.003615
C     2.678285    4.984043    1.329851    0.375874   -0.085447    0.191902
C     2.727628    6.322441    1.700287    0.371467   -0.088942    0.196477
O    -4.071986    3.145709   -1.289388    0.009926    0.014191   -0.053604
C    -5.412230    2.728518   -0.972186    0.005625    0.027013   -0.054955
H    -5.551936    1.666145   -1.201563    0.001768    0.023381   -0.036160
H    -6.059991    3.335625   -1.604205    0.012961    0.018667   -0.070684
H    -5.636211    2.914821    0.084135   -0.000595    0.047731   -0.059835
C     3.312834    7.274409    0.851624    0.029331   -0.021317    0.012612
C     3.844537    6.855219   -0.379362   -0.315877    0.048303   -0.172770
C     3.787479    5.514915   -0.742391   -0.317912    0.048386   -0.180491
H     4.192801    5.199752   -1.701040   -0.606369    0.108745   -0.334684
H     4.292212    7.582434   -1.049029   -0.587251    0.101396   -0.311920
H     2.223725    4.266658    2.008180    0.665858   -0.148712    0.337267
H     2.313505    6.647528    2.650287    0.639705   -0.143388    0.342544
C     3.340127    8.688002    1.290781    0.042753   -0.025463    0.025904
O     3.955406    9.500415    0.395208   -0.264014    0.039455   -0.141223
O     2.867955    9.103811    2.342035    0.297464   -0.080457    0.171126
C     4.013367   10.900275    0.772901   -0.283130    0.039556   -0.136018
H     3.001525   11.297378    0.889161   -0.301611   -0.073470    0.228889
H     4.534656   11.392720   -0.048105   -0.614157    0.115172   -0.321972
H     4.565407   11.010757    1.709976    0.041237    0.075278   -0.313691
C     5.537030    2.052976   -0.294385    0.021663    0.005749    0.008086
C     6.683240    1.423228    0.437563    0.007086   -0.017388    0.012286
O     5.704002    2.231100   -1.588699    0.057643    0.067423    0.021526
H     4.348189    2.297084    1.452895   -0.030279   -0.098254   -0.014561
C     6.575401    0.919809    1.750597   -0.010641   -0.039494    0.002613
C     7.917373    1.324255   -0.211043    0.014218   -0.012806    0.025183
C     9.027721    0.753641    0.424401    0.003345   -0.031168    0.027922
H     8.018103    1.698586   -1.224608    0.026238    0.004619    0.032751
C     7.678966    0.353340    2.375363   -0.021179   -0.056787    0.005514
C     8.919033    0.262786    1.728899   -0.014224   -0.053174    0.018135
H     9.764124   -0.186818    2.237202   -0.022462   -0.066388    0.020341
H     5.625913    0.953980    2.274175   -0.015023   -0.041588   -0.005221
H     7.583626   -0.037458    3.385330   -0.034856   -0.072411   -0.001685
O    10.184098    0.720010   -0.317620    0.011669   -0.025665    0.040435
C    11.340962    0.137685    0.303471    0.001083   -0.042722    0.044125
H    11.621036    0.694415    1.205383   -0.005913   -0.059176    0.056528
H    12.136324    0.207216   -0.439001    0.010030   -0.035227    0.054375
H    11.158553   -0.912496    0.559735   -0.008021   -0.045952    0.024904
Li    5.765962    2.579960   -3.212004   -0.004793    0.289417    0.058581
59
* Frequency(6)  -22.7280
C    -3.048396    2.531215   -0.627752    0.001992    0.022649   -0.033462
C    -3.228066    1.529576    0.337882   -0.010229    0.042398   -0.015027
C    -2.110127    0.968427    0.961067   -0.017845    0.050496    0.006125
C    -0.823476    1.391575    0.643322   -0.013494    0.039462    0.009054
C    -0.644719    2.393500   -0.326985   -0.001066    0.019041   -0.010045
C    -1.758511    2.955117   -0.957936    0.006659    0.010538   -0.031406
H    -1.618393    3.728085   -1.706923    0.016111   -0.004921   -0.045825
H    -4.220422    1.186173    0.606958   -0.013913    0.051576   -0.016831
H    -2.256543    0.191419    1.705958   -0.027334    0.065949    0.020548
H     0.029556    0.942114    1.139025   -0.019625    0.047043    0.026680
C     0.712184    2.885682   -0.720733    0.004991    0.007083   -0.005416
C     1.919103    2.355568    0.034243   -0.008914    0.021046    0.025508
O     0.842522    3.686227   -1.645728    0.017925   -0.012631   -0.020857
C     3.230043    3.084714   -0.295689    0.008080   -0.015946   -0.000617
H     2.027869    1.291966   -0.222158   -0.027672    0.003136    0.087676
H     1.715266    2.373855    1.110850   -0.019588    0.091556    0.024060
C     4.405436    2.419661    0.375487   -0.002514   -0.039960   -0.006694
C     3.210496    4.552630    0.101816    0.030163   -0.016869    0.001927
H     3.386888    3.040126   -1.377308   -0.014767   -0.019250   -0.003615
C     2.716372    4.975385    1.349296    0.375874   -0.085447    0.191902
C     2.765268    6.313429    1.720196    0.371467   -0.088942    0.196477
O    -4.070980    3.147147   -1.294820    0.009926    0.014191   -0.053604
C    -5.411660    2.731256   -0.977755    0.005625    0.027013   -0.054955
H    -5.551757    1.668514   -1.205228    0.001768    0.023381   -0.036160
H    -6.058678    3.337516   -1.611367    0.012961    0.018667   -0.070684
H    -5.636272    2.919657    0.078071   -0.000595    0.047731   -0.059835
C     3.315806    7.272249    0.852902    0.029331   -0.021317    0.012612
C     3.812529    6.860113   -0.396869   -0.315877    0.048303   -0.172770
C     3.755265    5.519818   -0.760680   -0.317912    0.048386   -0.180491
H     4.131358    5.210771   -1.734954   -0.606369    0.108745   -0.334684
H     4.232706    7.592709   -1.080636   -0.587251    0.101396   -0.311920
H     2.291196    4.251589    2.042355    0.665858   -0.148712    0.337267
H     2.378326    6.632998    2.684997    0.639705   -0.143388    0.342544
C     3.344459    8.685422    1.293406    0.042753   -0.025463    0.025904
O     3.928654    9.504413    0.380898   -0.264014    0.039455   -0.141223
O     2.898097    9.095659    2.359375    0.297464   -0.080457    0.171126
C     3.984678   10.904283    0.759118   -0.283130    0.039556   -0.136018
H     2.970963   11.289933    0.912354   -0.301611   -0.073470    0.228889
H     4.472423   11.404391   -0.080730   -0.614157    0.115172   -0.321972
H     4.569585   11.018385    1.678190    0.041237    0.075278   -0.313691
C     5.539226    2.053559   -0.293566    0.021663    0.005749    0.008086
C     6.683958    1.421466    0.438808    0.007086   -0.017388    0.012286
O     5.709843    2.237932   -1.586517    0.057643    0.067423    0.021526
H     4.345121    2.287128    1.451419   -0.030279   -0.098254   -0.014561
C     6.574323    0.915807    1.750862   -0.010641   -0.039494    0.002613
C     7.918813    1.322957   -0.208491    0.014218   -0.012806    0.025183
C     9.028060    0.750483    0.427230    0.003345   -0.031168    0.027922
H     8.020762    1.699054   -1.221289    0.026238    0.004619    0.032751
C     7.676820    0.347586    2.375921   -0.021179   -0.056787    0.005514
C     8.917592    0.257398    1.730737   -0.014224   -0.053174    0.018135
H     9.761848   -0.193545    2.239263   -0.022462   -0.066388    0.020341
H     5.624391    0.949766    2.273646   -0.015023   -0.041588   -0.005221
H     7.580094   -0.044795    3.385159   -0.034856   -0.072411   -0.001685
O    10.185280    0.717409   -0.313523    0.011669   -0.025665    0.040435
C    11.341071    0.133356    0.307943    0.001083   -0.042722    0.044125
H    11.620437    0.688418    1.211111   -0.005913   -0.059176    0.056528
H    12.137340    0.203647   -0.433491    0.010030   -0.035227    0.054375
H    11.157741   -0.917152    0.562258   -0.008021   -0.045952    0.024904
Li    5.765476    2.609287   -3.206068   -0.004793    0.289417    0.058581
59
* Frequency(6)  -22.7280
C    -3.048241    2.532983   -0.630363    0.001992    0.022649   -0.033462
C    -3.228865    1.532884    0.336710   -0.010229    0.042398   -0.015027
C    -2.111520    0.972368    0.961545   -0.017845    0.050496    0.006125
C    -0.824529    1.394654    0.644028   -0.013494    0.039462    0.009054
C    -0.644802    2.394986   -0.327768   -0.001066    0.019041   -0.010045
C    -1.757991    2.955939   -0.960386    0.006659    0.010538   -0.031406
H    -1.617135    3.727701   -1.710499    0.016111   -0.004921   -0.045825
H    -4.221508    1.190197    0.605644   -0.013913    0.051576   -0.016831
H    -2.258676    0.196565    1.707561   -0.027334    0.065949    0.020548
H     0.028025    0.945785    1.141107   -0.019625    0.047043    0.026680
C     0.712573    2.886234   -0.721155    0.004991    0.007083   -0.005416
C     1.918408    2.357210    0.036234   -0.008914    0.021046    0.025508
O     0.843921    3.685242   -1.647356    0.017925   -0.012631   -0.020857
C     3.230673    3.083469   -0.295737    0.008080   -0.015946   -0.000617
H     2.025710    1.292211   -0.215316   -0.027672    0.003136    0.087676
H     1.713738    2.381000    1.112728   -0.019588    0.091556    0.024060
C     4.405240    2.416543    0.374964   -0.002514   -0.039960   -0.006694
C     3.212850    4.551314    0.101967    0.030163   -0.016869    0.001927
H     3.385736    3.038624   -1.377590   -0.014767   -0.019250   -0.003615
C     2.745703    4.968717    1.364271    0.375874   -0.085447    0.191902
C     2.794255    6.306488    1.735528    0.371467   -0.088942    0.196477
O    -4.070206    3.148255   -1.299003    0.009926    0.014191   -0.053604
C    -5.411221    2.733364   -0.982043    0.005625    0.027013   -0.054955
H    -5.551619    1.670338   -1.208049    0.001768    0.023381   -0.036160
H    -6.057666    3.338973   -1.616883    0.012961    0.018667   -0.070684
H    -5.636318    2.923382    0.073402   -0.000595    0.047731   -0.059835
C     3.318095    7.270586    0.853886    0.029331   -0.021317    0.012612
C     3.787880    6.863883   -0.410351   -0.315877    0.048303   -0.172770
C     3.730457    5.523594   -0.774764   -0.317912    0.048386   -0.180491
H     4.084041    5.219257   -1.761071   -0.606369    0.108745   -0.334684
H     4.186880    7.600621   -1.104976   -0.587251    0.101396   -0.311920
H     2.343155    4.239985    2.068674    0.665858   -0.148712    0.337267
H     2.428244    6.621809    2.711727    0.639705   -0.143388    0.342544
C     3.347795    8.683435    1.295427    0.042753   -0.025463    0.025904
O     3.908052    9.507492    0.369878   -0.264014    0.039455   -0.141223
O     2.921309    9.089380    2.372729    0.297464   -0.080457    0.171126
C     3.962584   10.907370    0.748504   -0.283130    0.039556   -0.136018
H     2.947427   11.284200    0.930215   -0.301611   -0.073470    0.228889
H     4.424498   11.413378   -0.105855   -0.614157    0.115172   -0.321972
H     4.572803   11.024259    1.653712    0.041237    0.075278   -0.313691
C     5.540916    2.054007   -0.292935    0.021663    0.005749    0.008086
C     6.684511    1.420109    0.439766    0.007086   -0.017388    0.012286
O     5.714341    2.243193   -1.584838    0.057643    0.067423    0.021526
H     4.342758    2.279461    1.450283   -0.030279   -0.098254   -0.014561
C     6.573493    0.912725    1.751066   -0.010641   -0.039494    0.002613
C     7.919923    1.321958   -0.206526    0.014218   -0.012806    0.025183
C     9.028321    0.748051    0.429409    0.003345   -0.031168    0.027922
H     8.022809    1.699414   -1.218733    0.026238    0.004619    0.032751
C     7.675167    0.343154    2.376352   -0.021179   -0.056787    0.005514
C     8.916482    0.253249    1.732152   -0.014224   -0.053174    0.018135
H     9.760095   -0.198726    2.240850   -0.022462   -0.066388    0.020341
H     5.623218    0.946521    2.273238   -0.015023   -0.041588   -0.005221
H     7.577374   -0.050446    3.385028   -0.034856   -0.072411   -0.001685
O    10.186191    0.715406   -0.310368    0.011669   -0.025665    0.040435
C    11.341156    0.130022    0.311386    0.001083   -0.042722    0.044125
H    11.619975    0.683801    1.215522   -0.005913   -0.059176    0.056528
H    12.138123    0.200898   -0.429248    0.010030   -0.035227    0.054375
H    11.157115   -0.920738    0.564201   -0.008021   -0.045952    0.024904
Li    5.765102    2.631871   -3.201497   -0.004793    0.289417    0.058581
59
* Frequency(6)  -22.7280
C    -3.048149    2.534031   -0.631912    0.001992    0.022649   -0.033462
C    -3.229338    1.534847    0.336014   -0.010229    0.042398   -0.015027
C    -2.112345    0.974705    0.961828   -0.017845    0.050496    0.006125
C    -0.825153    1.396481    0.644447   -0.013494    0.039462    0.009054
C    -0.644852    2.395867   -0.328233   -0.001066    0.019041   -0.010045
C    -1.757683    2.956427   -0.961840    0.006659    0.010538   -0.031406
H    -1.616390    3.727473   -1.712620    0.016111   -0.004921   -0.045825
H    -4.222151    1.192584    0.604865   -0.013913    0.051576   -0.016831
H    -2.259941    0.199618    1.708512   -0.027334    0.065949    0.020548
H     0.027116    0.947963    1.142342   -0.019625    0.047043    0.026680
C     0.712804    2.886562   -0.721406    0.004991    0.007083   -0.005416
C     1.917995    2.358184    0.037414   -0.008914    0.021046    0.025508
O     0.844751    3.684657   -1.648321    0.017925   -0.012631   -0.020857
C     3.231047    3.082731   -0.295765    0.008080   -0.015946   -0.000617
H     2.024429    1.292356   -0.211258   -0.027672    0.003136    0.087676
H     1.712831    2.385237    1.113841   -0.019588    0.091556    0.024060
C     4.405123    2.414694    0.374655   -0.002514   -0.039960   -0.006694
C     3.214246    4.550533    0.102056    0.030163   -0.016869    0.001927
H     3.385052    3.037733   -1.377757   -0.014767   -0.019250   -0.003615
C     2.763099    4.964762    1.373152    0.375874   -0.085447    0.191902
C     2.811447    6.302372    1.744621    0.371467   -0.088942    0.196477
O    -4.069746    3.148911   -1.301484    0.009926    0.014191   -0.053604
C    -5.410961    2.734614   -0.984586    0.005625    0.027013   -0.054955
H    -5.551537    1.671420   -1.209723    0.001768    0.023381   -0.036160
H    -6.057067    3.339837   -1.620154    0.012961    0.018667   -0.070684
H    -5.636346    2.925591    0.070633   -0.000595    0.047731   -0.059835
C     3.319452    7.269599    0.854470    0.029331   -0.021317    0.012612
C     3.773261    6.866118   -0.418347   -0.315877    0.048303   -0.172770
C     3.715743    5.525833   -0.783118   -0.317912    0.048386   -0.180491
H     4.055977    5.224290   -1.776560   -0.606369    0.108745   -0.334684
H     4.159701    7.605314   -1.119412   -0.587251    0.101396   -0.311920
H     2.373973    4.233102    2.084283    0.665858   -0.148712    0.337267
H     2.457851    6.615173    2.727580    0.639705   -0.143388    0.342544
C     3.349774    8.682257    1.296626    0.042753   -0.025463    0.025904
O     3.895833    9.509318    0.363342   -0.264014    0.039455   -0.141223
O     2.935076    9.085656    2.380649    0.297464   -0.080457    0.171126
C     3.949480   10.909201    0.742209   -0.283130    0.039556   -0.136018
H     2.933468   11.280799    0.940809   -0.301611   -0.073470    0.228889
H     4.396074   11.418708   -0.120757   -0.614157    0.115172   -0.321972
H     4.574712   11.027743    1.639194    0.041237    0.075278   -0.313691
C     5.541919    2.054273   -0.292560    0.021663    0.005749    0.008086
C     6.684838    1.419304    0.440335    0.007086   -0.017388    0.012286
O     5.717008    2.246314   -1.583841    0.057643    0.067423    0.021526
H     4.341357    2.274914    1.449609   -0.030279   -0.098254   -0.014561
C     6.573000    0.910897    1.751187   -0.010641   -0.039494    0.002613
C     7.920581    1.321366   -0.205360    0.014218   -0.012806    0.025183
C     9.028476    0.746608    0.430701    0.003345   -0.031168    0.027922
H     8.024024    1.699628   -1.217217    0.026238    0.004619    0.032751
C     7.674187    0.340526    2.376607   -0.021179   -0.056787    0.005514
C     8.915824    0.250788    1.732991   -0.014224   -0.053174    0.018135
H     9.759056   -0.201798    2.241792   -0.022462   -0.066388    0.020341
H     5.622523    0.944596    2.272996   -0.015023   -0.041588   -0.005221
H     7.575761   -0.053797    3.384950   -0.034856   -0.072411   -0.001685
O    10.186731    0.714219   -0.308496    0.011669   -0.025665    0.040435
C    11.341206    0.128045    0.313428    0.001083   -0.042722    0.044125
H    11.619702    0.681062    1.218138   -0.005913   -0.059176    0.056528
H    12.138587    0.199268   -0.426732    0.010030   -0.035227    0.054375
H    11.156744   -0.922865    0.565354   -0.008021   -0.045952    0.024904
Li    5.764880    2.645266   -3.198786   -0.004793    0.289417    0.058581
59
* Frequency(6)  -22.7280
C    -3.048130    2.534247   -0.632230    0.001992    0.022649   -0.033462
C    -3.229435    1.535250    0.335871   -0.010229    0.042398   -0.015027
C    -2.112515    0.975185    0.961887   -0.017845    0.050496    0.006125
C    -0.825282    1.396856    0.644534   -0.013494    0.039462    0.009054
C    -0.644862    2.396048   -0.328329   -0.001066    0.019041   -0.010045
C    -1.757619    2.956527   -0.962139    0.006659    0.010538   -0.031406
H    -1.616236    3.727426   -1.713056    0.016111   -0.004921   -0.045825
H    -4.222284    1.193075    0.604705   -0.013913    0.051576   -0.016831
H    -2.260201    0.200245    1.708708   -0.027334    0.065949    0.020548
H     0.026930    0.948410    1.142596   -0.019625    0.047043    0.026680
C     0.712851    2.886629   -0.721457    0.004991    0.007083   -0.005416
C     1.917910    2.358384    0.037657   -0.008914    0.021046    0.025508
O     0.844921    3.684537   -1.648519    0.017925   -0.012631   -0.020857
C     3.231124    3.082580   -0.295771    0.008080   -0.015946   -0.000617
H     2.024166    1.292385   -0.210424   -0.027672    0.003136    0.087676
H     1.712645    2.386108    1.114070   -0.019588    0.091556    0.024060
C     4.405099    2.414313    0.374591   -0.002514   -0.039960   -0.006694
C     3.214533    4.550373    0.102074    0.030163   -0.016869    0.001927
H     3.384912    3.037550   -1.377792   -0.014767   -0.019250   -0.003615
C     2.766675    4.963949    1.374978    0.375874   -0.085447    0.191902
C     2.814982    6.301526    1.746491    0.371467   -0.088942    0.196477
O    -4.069652    3.149046   -1.301994    0.009926    0.014191   -0.053604
C    -5.410907    2.734871   -0.985109    0.005625    0.027013   -0.054955
H    -5.551520    1.671643   -1.210067    0.001768    0.023381   -0.036160
H    -6.056943    3.340015   -1.620827    0.012961    0.018667   -0.070684
H    -5.636351    2.926045    0.070064   -0.000595    0.047731   -0.059835
C     3.319731    7.269396    0.854590    0.029331   -0.021317    0.012612
C     3.770255    6.866578   -0.419991   -0.315877    0.048303   -0.172770
C     3.712719    5.526294   -0.784835   -0.317912    0.048386   -0.180491
H     4.050208    5.225325   -1.779745   -0.606369    0.108745   -0.334684
H     4.154114    7.606278   -1.122380   -0.587251    0.101396   -0.311920
H     2.380308    4.231687    2.087492    0.665858   -0.148712    0.337267
H     2.463938    6.613809    2.730839    0.639705   -0.143388    0.342544
C     3.350180    8.682015    1.296872    0.042753   -0.025463    0.025904
O     3.893321    9.509694    0.361998   -0.264014    0.039455   -0.141223
O     2.937906    9.084891    2.382277    0.297464   -0.080457    0.171126
C     3.946786   10.909577    0.740915   -0.283130    0.039556   -0.136018
H     2.930598   11.280100    0.942986   -0.301611   -0.073470    0.228889
H     4.390231   11.419804   -0.123820   -0.614157    0.115172   -0.321972
H     4.575104   11.028459    1.636209    0.041237    0.075278   -0.313691
C     5.542125    2.054328   -0.292483    0.021663    0.005749    0.008086
C     6.684906    1.419139    0.440452    0.007086   -0.017388    0.012286
O     5.717557    2.246955   -1.583637    0.057643    0.067423    0.021526
H     4.341069    2.273979    1.449471   -0.030279   -0.098254   -0.014561
C     6.572899    0.910522    1.751212   -0.010641   -0.039494    0.002613
C     7.920716    1.321244   -0.205121    0.014218   -0.012806    0.025183
C     9.028507    0.746312    0.430967    0.003345   -0.031168    0.027922
H     8.024273    1.699672   -1.216906    0.026238    0.004619    0.032751
C     7.673985    0.339986    2.376659   -0.021179   -0.056787    0.005514
C     8.915688    0.250282    1.733164   -0.014224   -0.053174    0.018135
H     9.758842   -0.202430    2.241985   -0.022462   -0.066388    0.020341
H     5.622380    0.944200    2.272947   -0.015023   -0.041588   -0.005221
H     7.575430   -0.054486    3.384934   -0.034856   -0.072411   -0.001685
O    10.186842    0.713974   -0.308111    0.011669   -0.025665    0.040435
C    11.341216    0.127639    0.313848    0.001083   -0.042722    0.044125
H    11.619645    0.680499    1.218676   -0.005913   -0.059176    0.056528
H    12.138682    0.198932   -0.426214    0.010030   -0.035227    0.054375
H    11.156667   -0.923302    0.565591   -0.008021   -0.045952    0.024904
Li    5.764835    2.648020   -3.198229   -0.004793    0.289417    0.058581
59
* Frequency(6)  -22.7280
C    -3.048186    2.533606   -0.631284    0.001992    0.022649   -0.033462
C    -3.229146    1.534051    0.336296   -0.010229    0.042398   -0.015027
C    -2.112011    0.973757    0.961713   -0.017845    0.050496    0.006125
C    -0.824900    1.395740    0.644277   -0.013494    0.039462    0.009054
C    -0.644832    2.395510   -0.328045   -0.001066    0.019041   -0.010045
C    -1.757808    2.956229   -0.961251    0.006659    0.010538   -0.031406
H    -1.616692    3.727565   -1.711760    0.016111   -0.004921   -0.045825
H    -4.221890    1.191616    0.605181   -0.013913    0.051576   -0.016831
H    -2.259428    0.198380    1.708127   -0.027334    0.065949    0.020548
H     0.027485    0.947080    1.141841   -0.019625    0.047043    0.026680
C     0.712710    2.886429   -0.721304    0.004991    0.007083   -0.005416
C     1.918163    2.357789    0.036935   -0.008914    0.021046    0.025508
O     0.844414    3.684894   -1.647929    0.017925   -0.012631   -0.020857
C     3.230896    3.083031   -0.295754    0.008080   -0.015946   -0.000617
H     2.024948    1.292297   -0.212904   -0.027672    0.003136    0.087676
H     1.713199    2.383519    1.113390   -0.019588    0.091556    0.024060
C     4.405170    2.415444    0.374780   -0.002514   -0.039960   -0.006694
C     3.213680    4.550850    0.102020    0.030163   -0.016869    0.001927
H     3.385329    3.038094   -1.377689   -0.014767   -0.019250   -0.003615
C     2.756044    4.966366    1.369550    0.375874   -0.085447    0.191902
C     2.804475    6.304041    1.740934    0.371467   -0.088942    0.196477
O    -4.069933    3.148645   -1.300478    0.009926    0.014191   -0.053604
C    -5.411066    2.734107   -0.983555    0.005625    0.027013   -0.054955
H    -5.551570    1.670982   -1.209044    0.001768    0.023381   -0.036160
H    -6.057310    3.339487   -1.618828    0.012961    0.018667   -0.070684
H    -5.636334    2.924695    0.071756   -0.000595    0.047731   -0.059835
C     3.318902    7.269999    0.854233    0.029331   -0.021317    0.012612
C     3.779190    6.865212   -0.415104   -0.315877    0.048303   -0.172770
C     3.721710    5.524925   -0.779730   -0.317912    0.048386   -0.180491
H     4.067358    5.222249   -1.770279   -0.606369    0.108745   -0.334684
H     4.170724    7.603411   -1.113558   -0.587251    0.101396   -0.311920
H     2.361475    4.235893    2.077953    0.665858   -0.148712    0.337267
H     2.445844    6.617864    2.721151    0.639705   -0.143388    0.342544
C     3.348971    8.682735    1.296140    0.042753   -0.025463    0.025904
O     3.900788    9.508578    0.365993   -0.264014    0.039455   -0.141223
O     2.929493    9.087167    2.377437    0.297464   -0.080457    0.171126
C     3.954794   10.908458    0.744762   -0.283130    0.039556   -0.136018
H     2.939129   11.282178    0.936513   -0.301611   -0.073470    0.228889
H     4.407602   11.416547   -0.114713   -0.614157    0.115172   -0.321972
H     4.573938   11.026330    1.645081    0.041237    0.075278   -0.313691
C     5.541512    2.054166   -0.292712    0.021663    0.005749    0.008086
C     6.684705    1.419630    0.440104    0.007086   -0.017388    0.012286
O     5.715927    2.245048   -1.584245    0.057643    0.067423    0.021526