! Job execution by suborca V 5.02 !
Job started from clu.thch.uni-bonn.de, running /software/cluster/orca_5_0_2_linux_x86-64_openmpi411/orca from /software/cluster/orca_5_0_2_linux_x86-64_openmpi411 on boar228 in /tmp1/rothe/Diketon-Li_sp__emaGuz
Going to copy the following really necessary files:  

                                 *****************
                                 * O   R   C   A *
                                 *****************

                                            #,                                       
                                            ###                                      
                                            ####                                     
                                            #####                                    
                                            ######                                   
                                           ########,                                 
                                     ,,################,,,,,                         
                               ,,#################################,,                 
                          ,,##########################################,,             
                       ,#########################################, ''#####,          
                    ,#############################################,,   '####,        
                  ,##################################################,,,,####,       
                ,###########''''           ''''###############################       
              ,#####''   ,,,,##########,,,,          '''####'''          '####       
            ,##' ,,,,###########################,,,                        '##       
           ' ,,###''''                  '''############,,,                           
         ,,##''                                '''############,,,,        ,,,,,,###''
      ,#''                                            '''#######################'''  
     '                                                          ''''####''''         
             ,#######,   #######,   ,#######,      ##                                
            ,#'     '#,  ##    ##  ,#'     '#,    #''#        ######   ,####,        
            ##       ##  ##   ,#'  ##            #'  '#       #        #'  '#        
            ##       ##  #######   ##           ,######,      #####,   #    #        
            '#,     ,#'  ##    ##  '#,     ,#' ,#      #,         ##   #,  ,#        
             '#######'   ##     ##  '#######'  #'      '#     #####' # '####'        



                  #######################################################
                  #                        -***-                        #
                  #          Department of theory and spectroscopy      #
                  #    Directorship and core code : Frank Neese         #
                  #        Max Planck Institute fuer Kohlenforschung    #
                  #                Kaiser Wilhelm Platz 1               #
                  #                 D-45470 Muelheim/Ruhr               #
                  #                      Germany                        #
                  #                                                     #
                  #                  All rights reserved                #
                  #                        -***-                        #
                  #######################################################


                         Program Version 5.0.2 -  RELEASE  -


 With contributions from (in alphabetic order):
   Daniel Aravena         : Magnetic Suceptibility
   Michael Atanasov       : Ab Initio Ligand Field Theory (pilot matlab implementation)
   Alexander A. Auer      : GIAO ZORA, VPT2 properties, NMR spectrum
   Ute Becker             : Parallelization
   Giovanni Bistoni       : ED, misc. LED, open-shell LED, HFLD
   Martin Brehm           : Molecular dynamics
   Dmytro Bykov           : SCF Hessian
   Vijay G. Chilkuri      : MRCI spin determinant printing, contributions to CSF-ICE
   Dipayan Datta          : RHF DLPNO-CCSD density
   Achintya Kumar Dutta   : EOM-CC, STEOM-CC
   Dmitry Ganyushin       : Spin-Orbit,Spin-Spin,Magnetic field MRCI
   Miquel Garcia          : C-PCM and meta-GGA Hessian, CC/C-PCM, Gaussian charge scheme
   Yang Guo               : DLPNO-NEVPT2, F12-NEVPT2, CIM, IAO-localization
   Andreas Hansen         : Spin unrestricted coupled pair/coupled cluster methods
   Benjamin Helmich-Paris : MC-RPA, TRAH-SCF, COSX integrals
   Lee Huntington         : MR-EOM, pCC
   Robert Izsak           : Overlap fitted RIJCOSX, COSX-SCS-MP3, EOM
   Marcus Kettner         : VPT2
   Christian Kollmar      : KDIIS, OOCD, Brueckner-CCSD(T), CCSD density, CASPT2, CASPT2-K
   Simone Kossmann        : Meta GGA functionals, TD-DFT gradient, OOMP2, MP2 Hessian
   Martin Krupicka        : Initial AUTO-CI
   Lucas Lang             : DCDCAS
   Marvin Lechner         : AUTO-CI (C++ implementation), FIC-MRCC
   Dagmar Lenk            : GEPOL surface, SMD
   Dimitrios Liakos       : Extrapolation schemes; Compound Job, initial MDCI parallelization
   Dimitrios Manganas     : Further ROCIS development; embedding schemes
   Dimitrios Pantazis     : SARC Basis sets
   Anastasios Papadopoulos: AUTO-CI, single reference methods and gradients
   Taras Petrenko         : DFT Hessian,TD-DFT gradient, ASA, ECA, R-Raman, ABS, FL, XAS/XES, NRVS
   Peter Pinski           : DLPNO-MP2, DLPNO-MP2 Gradient
   Christoph Reimann      : Effective Core Potentials
   Marius Retegan         : Local ZFS, SOC
   Christoph Riplinger    : Optimizer, TS searches, QM/MM, DLPNO-CCSD(T), (RO)-DLPNO pert. Triples
   Tobias Risthaus        : Range-separated hybrids, TD-DFT gradient, RPA, STAB
   Michael Roemelt        : Original ROCIS implementation
   Masaaki Saitow         : Open-shell DLPNO-CCSD energy and density
   Barbara Sandhoefer     : DKH picture change effects
   Avijit Sen             : IP-ROCIS
   Kantharuban Sivalingam : CASSCF convergence, NEVPT2, FIC-MRCI
   Bernardo de Souza      : ESD, SOC TD-DFT
   Georgi Stoychev        : AutoAux, RI-MP2 NMR, DLPNO-MP2 response
   Willem Van den Heuvel  : Paramagnetic NMR
   Boris Wezisla          : Elementary symmetry handling
   Frank Wennmohs         : Technical directorship


 We gratefully acknowledge several colleagues who have allowed us to
 interface, adapt or use parts of their codes:
   Stefan Grimme, W. Hujo, H. Kruse, P. Pracht,  : VdW corrections, initial TS optimization,
                  C. Bannwarth, S. Ehlert          DFT functionals, gCP, sTDA/sTD-DF
   Ed Valeev, F. Pavosevic, A. Kumar             : LibInt (2-el integral package), F12 methods
   Garnet Chan, S. Sharma, J. Yang, R. Olivares  : DMRG
   Ulf Ekstrom                                   : XCFun DFT Library
   Mihaly Kallay                                 : mrcc  (arbitrary order and MRCC methods)
   Jiri Pittner, Ondrej Demel                    : Mk-CCSD
   Frank Weinhold                                : gennbo (NPA and NBO analysis)
   Christopher J. Cramer and Donald G. Truhlar   : smd solvation model
   Lars Goerigk                                  : TD-DFT with DH, B97 family of functionals
   V. Asgeirsson, H. Jonsson                     : NEB implementation
   FAccTs GmbH                                   : IRC, NEB, NEB-TS, DLPNO-Multilevel, CI-OPT
                                                   MM, QMMM, 2- and 3-layer-ONIOM, Crystal-QMMM,
                                                   LR-CPCM, SF, NACMEs, symmetry and pop. for TD-DFT,
                                                   nearIR, NL-DFT gradient (VV10), updates on ESD,
                                                   ML-optimized integration grids
   S Lehtola, MJT Oliveira, MAL Marques          : LibXC Library
   Liviu Ungur et al                             : ANISO software


 Your calculation uses the libint2 library for the computation of 2-el integrals
 For citations please refer to: http://libint.valeyev.net

 Your ORCA version has been built with support for libXC version: 5.1.0
 For citations please refer to: https://tddft.org/programs/libxc/

 This ORCA versions uses:
   CBLAS   interface :  Fast vector & matrix operations
   LAPACKE interface :  Fast linear algebra routines
   SCALAPACK package :  Parallel linear algebra routines
   Shared memory     :  Shared parallel matrices
   BLAS/LAPACK       :  OpenBLAS 0.3.15  USE64BITINT DYNAMIC_ARCH NO_AFFINITY Barcelona SINGLE_THREADED
        Core in use  :  Barcelona
   Copyright (c) 2011-2014, The OpenBLAS Project


Your calculation utilizes the atom-pairwise dispersion correction
with the Becke-Johnson damping scheme (D3BJ)
Cite in your paper:
S.Grimme, S.Ehrlich, L.Goerigk, J Comput Chem, (2011), 32, 1456–1465 
S.Grimme, J.Antony, S.Ehrlich and H.Krieg, J.Chem.Phys., 132, (2010), 154104 
   

================================================================================

----- Orbital basis set information -----
Your calculation utilizes the basis: def2-QZVP
   F. Weigend and R. Ahlrichs, Phys. Chem. Chem. Phys. 7, 3297 (2005).

----- AuxJK basis set information -----
Your calculation utilizes the auxiliary basis: def2/JK
   H-Ba, Hf-Rn: F. Weigend, J. Comput. Chem. 29, 167 (2008).

================================================================================
                                        WARNINGS
                       Please study these warnings very carefully!
================================================================================


INFO   : the flag for use of the SHARK integral package has been found!

================================================================================
                                       INPUT FILE
================================================================================
NAME = Diketon-Li_sp.inp
|  1> ! PW6B95 D3BJ def2-QZVP RIJK def2/JK tightSCF CPCM(THF)
|  2> ! sp Pal8
|  3> 
|  4> * xyz 0 1
|  5>   C   -2.90415594362074      2.98659759962306     -0.62639137952430
|  6>   C   -3.16014228373024      2.00571311257060      0.34348687823222
|  7>   C   -2.09183427189648      1.30903677099131      0.91439620984618
|  8>   C   -0.77880501259214      1.57724378222959      0.54107926135591
|  9>   C   -0.52354971874284      2.55861614108094     -0.43336285634166
| 10>   C   -1.58841910570641      3.25480820638992     -1.01304554722015
| 11>   H   -1.38938146801522      4.01016919080657     -1.76660227096181
| 12>   H   -4.17366122479612      1.78190061205236      0.65603192659330
| 13>   H   -2.29776153783586      0.54872425631466      1.66236388092674
| 14>   H   0.03387253577645      1.02247378196697      0.99590708482934
| 15>   C   0.86282505945627      2.88321705118390     -0.89093709502586
| 16>   C   2.02617828640711      2.20112261594342     -0.19551398594428
| 17>   O   1.04812065992280      3.66627593303921     -1.82170572776467
| 18>   C   3.40891859214644      2.80977991157766     -0.50410040662812
| 19>   H   2.02334843248056      1.14857503863623     -0.51483512942152
| 20>   H   1.85871531003247      2.18531911561380      0.88735655344234
| 21>   C   4.47934656732132      1.88502104915374      0.03384402336094
| 22>   C   3.49879040633473      4.21273336119463      0.07717913110490
| 23>   H   3.49110693147020      2.91660360272822     -1.59498285418374
| 24>   C   3.61843359672987      4.40500318663451      1.46423087985145
| 25>   C   3.73669437103957      5.68248171469394      2.00130268831662
| 26>   O   -3.87358569481120      3.72619660976280     -1.24480545096832
| 27>   C   -5.23897564576471      3.47559350542916     -0.86480535066066
| 28>   H   -5.51883587401547      2.43949480681329     -1.08584388842296
| 29>   H   -5.83575556818882      4.16039245591479     -1.46682718843641
| 30>   H   -5.38869179180071      3.68341821219715      0.20061408066792
| 31>   C   3.74019982334468      6.81148510800803      1.16516678645369
| 32>   C   3.60501564499973      6.63560940090471     -0.22205248554857
| 33>   C   3.48196949169436      5.34909124567590     -0.75331182874808
| 34>   H   3.37340545344853      5.21524753119762     -1.82553572984230
| 35>   H   3.59908709024452      7.49771562255795     -0.87996641511146
| 36>   H   3.65434160245367      3.53610155808974      2.11554513536108
| 37>   H   3.84331310063504      5.82395994378960      3.07214309096766
| 38>   C   3.89016228319445      8.15244319906294      1.78794978422266
| 39>   O   3.89759761905754      9.14670131755794      0.87290240786530
| 40>   O   3.99598627014451      8.34786255042222      2.99014208729073
| 41>   C   4.03997350686594     10.48699541970562      1.41679572466079
| 42>   H   3.20538545159208     10.70514138769765      2.08636784718567
| 43>   H   4.02839753468459     11.14471951425239      0.54917278668672
| 44>   H   4.98455353206942     10.56762035314624      1.95880366190808
| 45>   C   5.80334052009707      2.22022873754265      0.11811051376068
| 46>   C   6.80784295722549      1.23353308644474      0.63617419776500
| 47>   O   6.28467713645853      3.38968373961950     -0.25046121983440
| 48>   H   4.15848979448277      0.89120079469639      0.32776594424669
| 49>   C   6.45723049066251      0.02238272749179      1.26831401942458
| 50>   C   8.16456409204798      1.53693532536492      0.49020499333840
| 51>   C   9.15747459797310      0.66052673186958      0.94575641110187
| 52>   H   8.44938410197385      2.46847552451445      0.01254137979052
| 53>   C   7.44638492872559     -0.84240638107720      1.71975403594487
| 54>   C   8.80667379916309     -0.54248148539734      1.56561685019496
| 55>   H   9.55879341903473     -1.23309915440192      1.92915154181844
| 56>   H   5.41492412556508     -0.23606095760893      1.42262717519781
| 57>   H   7.16565692200840     -1.77098143711483      2.21053726598281
| 58>   O   10.45257954783989      1.07151647504435      0.73957320137414
| 59>   C   11.49554681969321      0.19893578114728      1.20120879920727
| 60>   H   11.43100036511507      0.05407752221869      2.28603948609918
| 61>   H   12.42937523152534      0.70119005368190      0.94742890856747
| 62>   H   11.44368580758542     -0.77251730499324      0.69570726648574
| 63>   Li  5.78981628559203      5.03868402794520     -0.20026866184156
| 64> *
| 65> 
| 66>                          ****END OF INPUT****
================================================================================

                       ****************************
                       * Single Point Calculation *
                       ****************************

---------------------------------
CARTESIAN COORDINATES (ANGSTROEM)
---------------------------------
  C     -2.904156    2.986598   -0.626391
  C     -3.160142    2.005713    0.343487
  C     -2.091834    1.309037    0.914396
  C     -0.778805    1.577244    0.541079
  C     -0.523550    2.558616   -0.433363
  C     -1.588419    3.254808   -1.013046
  H     -1.389381    4.010169   -1.766602
  H     -4.173661    1.781901    0.656032
  H     -2.297762    0.548724    1.662364
  H      0.033873    1.022474    0.995907
  C      0.862825    2.883217   -0.890937
  C      2.026178    2.201123   -0.195514
  O      1.048121    3.666276   -1.821706
  C      3.408919    2.809780   -0.504100
  H      2.023348    1.148575   -0.514835
  H      1.858715    2.185319    0.887357
  C      4.479347    1.885021    0.033844
  C      3.498790    4.212733    0.077179
  H      3.491107    2.916604   -1.594983
  C      3.618434    4.405003    1.464231
  C      3.736694    5.682482    2.001303
  O     -3.873586    3.726197   -1.244805
  C     -5.238976    3.475594   -0.864805
  H     -5.518836    2.439495   -1.085844
  H     -5.835756    4.160392   -1.466827
  H     -5.388692    3.683418    0.200614
  C      3.740200    6.811485    1.165167
  C      3.605016    6.635609   -0.222052
  C      3.481969    5.349091   -0.753312
  H      3.373405    5.215248   -1.825536
  H      3.599087    7.497716   -0.879966
  H      3.654342    3.536102    2.115545
  H      3.843313    5.823960    3.072143
  C      3.890162    8.152443    1.787950
  O      3.897598    9.146701    0.872902
  O      3.995986    8.347863    2.990142
  C      4.039974   10.486995    1.416796
  H      3.205385   10.705141    2.086368
  H      4.028398   11.144720    0.549173
  H      4.984554   10.567620    1.958804
  C      5.803341    2.220229    0.118111
  C      6.807843    1.233533    0.636174
  O      6.284677    3.389684   -0.250461
  H      4.158490    0.891201    0.327766
  C      6.457230    0.022383    1.268314
  C      8.164564    1.536935    0.490205
  C      9.157475    0.660527    0.945756
  H      8.449384    2.468476    0.012541
  C      7.446385   -0.842406    1.719754
  C      8.806674   -0.542481    1.565617
  H      9.558793   -1.233099    1.929152
  H      5.414924   -0.236061    1.422627
  H      7.165657   -1.770981    2.210537
  O     10.452580    1.071516    0.739573
  C     11.495547    0.198936    1.201209
  H     11.431000    0.054078    2.286039
  H     12.429375    0.701190    0.947429
  H     11.443686   -0.772517    0.695707
  Li     5.789816    5.038684   -0.200269

----------------------------
CARTESIAN COORDINATES (A.U.)
----------------------------
  NO LB      ZA    FRAG     MASS         X           Y           Z
   0 C     6.0000    0    12.011   -5.488059    5.643852   -1.183708
   1 C     6.0000    0    12.011   -5.971803    3.790248    0.649096
   2 C     6.0000    0    12.011   -3.952994    2.473721    1.727958
   3 C     6.0000    0    12.011   -1.471728    2.980559    1.022492
   4 C     6.0000    0    12.011   -0.989366    4.835084   -0.818937
   5 C     6.0000    0    12.011   -3.001677    6.150696   -1.914379
   6 H     1.0000    0     1.008   -2.625550    7.578122   -3.338394
   7 H     1.0000    0     1.008   -7.887077    3.367304    1.239721
   8 H     1.0000    0     1.008   -4.342140    1.036939    3.141412
   9 H     1.0000    0     1.008    0.064010    1.932195    1.881992
  10 C     6.0000    0    12.011    1.630503    5.448491   -1.683627
  11 C     6.0000    0    12.011    3.828922    4.159519   -0.369468
  12 O     8.0000    0    15.999    1.980661    6.928257   -3.442525
  13 C     6.0000    0    12.011    6.441923    5.309715   -0.952612
  14 H     1.0000    0     1.008    3.823574    2.170492   -0.972897
  15 H     1.0000    0     1.008    3.512463    4.129655    1.676861
  16 C     6.0000    0    12.011    8.464738    3.562174    0.063956
  17 C     6.0000    0    12.011    6.611756    7.960912    0.145847
  18 H     1.0000    0     1.008    6.597236    5.511582   -3.014081
  19 C     6.0000    0    12.011    6.837849    8.324250    2.766995
  20 C     6.0000    0    12.011    7.061329   10.738334    3.781914
  21 O     8.0000    0    15.999   -7.320016    7.041491   -2.352341
  22 C     6.0000    0    12.011   -9.900229    6.567920   -1.634245
  23 H     1.0000    0     1.008  -10.429088    4.609977   -2.051948
  24 H     1.0000    0     1.008  -11.027980    7.862002   -2.771902
  25 H     1.0000    0     1.008  -10.183152    6.960652    0.379106
  26 C     6.0000    0    12.011    7.067953   12.871841    2.201846
  27 C     6.0000    0    12.011    6.812492   12.539484   -0.419618
  28 C     6.0000    0    12.011    6.579969   10.108318   -1.423553
  29 H     1.0000    0     1.008    6.374812    9.855390   -3.449763
  30 H     1.0000    0     1.008    6.801289   14.168629   -1.662896
  31 H     1.0000    0     1.008    6.905705    6.682264    3.997801
  32 H     1.0000    0     1.008    7.262809   11.005689    5.805509
  33 C     6.0000    0    12.011    7.351341   15.405885    3.378735
  34 O     8.0000    0    15.999    7.365392   17.284761    1.649546
  35 O     8.0000    0    15.999    7.551320   15.775174    5.650550
  36 C     6.0000    0    12.011    7.634444   19.817549    2.677356
  37 H     1.0000    0     1.008    6.057301   20.229785    3.942664
  38 H     1.0000    0     1.008    7.612568   21.060468    1.037786
  39 H     1.0000    0     1.008    9.419441   19.969908    3.701602
  40 C     6.0000    0    12.011   10.966724    4.195624    0.223197
  41 C     6.0000    0    12.011   12.864959    2.331040    1.202195
  42 O     8.0000    0    15.999   11.876319    6.405574   -0.473303
  43 H     1.0000    0     1.008    7.858407    1.684125    0.619388
  44 C     6.0000    0    12.011   12.202397    0.042297    2.396766
  45 C     6.0000    0    12.011   15.428790    2.904387    0.926353
  46 C     6.0000    0    12.011   17.305119    1.248215    1.787221
  47 H     1.0000    0     1.008   15.967022    4.664743    0.023700
  48 C     6.0000    0    12.011   14.071628   -1.591917    3.249864
  49 C     6.0000    0    12.011   16.642202   -1.025141    2.958587
  50 H     1.0000    0     1.008   18.063502   -2.330220    3.645568
  51 H     1.0000    0     1.008   10.232724   -0.446091    2.688376
  52 H     1.0000    0     1.008   13.541129   -3.346670    4.177310
  53 O     8.0000    0    15.999   19.752513    2.024873    1.397591
  54 C     6.0000    0    12.011   21.723435    0.375934    2.269956
  55 H     1.0000    0     1.008   21.601460    0.102192    4.319989
  56 H     1.0000    0     1.008   23.488115    1.325057    1.790381
  57 H     1.0000    0     1.008   21.625432   -1.459846    1.314696
  58 Li    3.0000    0     6.941   10.941167    9.521733   -0.378453

--------------------------------
INTERNAL COORDINATES (ANGSTROEM)
--------------------------------
 C      0   0   0     0.000000000000     0.00000000     0.00000000
 C      1   0   0     1.402970854341     0.00000000     0.00000000
 C      2   1   0     1.397346556151   119.44072245     0.00000000
 C      3   2   1     1.391167272723   121.05267616     0.31634042
 C      4   3   2     1.406337232849   119.45768446   359.54386923
 C      1   2   3     1.397355288258   119.82053897     0.13295314
 H      6   1   2     1.085372716578   119.89175302   179.71629875
 H      2   1   3     1.083972825555   120.94951482   179.95003255
 H      3   2   1     1.086248956645   119.03641356   180.19592657
 H      4   3   2     1.084012407595   119.75724896   180.13959059
 C      5   4   3     1.495585156510   122.12008062   180.75201739
 C     11   5   4     1.517318967748   118.22514323   355.15445055
 O     11   5   4     1.230384460116   120.60928416   173.96777355
 C     12  11   5     1.541966288761   114.73210376   192.83166273
 H     12  11   5     1.099922907862   107.16637361    71.95011562
 H     12  11   5     1.095856835609   110.01155785   317.35300820
 C     14  12  11     1.513399885498   108.77970271   190.61185942
 C     14  12  11     1.521263036350   109.90965288    66.78484405
 H     14  12  11     1.099177300756   107.69970701   311.06567001
 C     18  14  12     1.405416213256   120.55108403    72.73843085
 C     20  18  14     1.390821026531   120.93095469   178.28753390
 O      1   2   3     1.367200315262   124.16139917   180.11671629
 C     22   1   2     1.439267768798   117.32591522     0.19205068
 H     23  22   1     1.095755582147   110.71216079   298.89349977
 H     23  22   1     1.089736744151   105.32240900   179.96703776
 H     23  22   1     1.095775797223   110.68945593    61.03430680
 C     21  20  18     1.404914302260   120.56485541   359.94391754
 C     27  21  20     1.404843170976   119.13300291     0.82255393
 C     28  27  21     1.397320939982   119.94494438   359.40647493
 H     29  28  27     1.085985443909   119.84511138   179.74607138
 H     28  27  21     1.084487447547   120.00353466   179.58286206
 H     20  18  14     1.086503421252   119.01458521     0.51346567
 H     21  20  18     1.085395232511   120.60080755   180.89524647
 C     27  21  20     1.486107668926   118.42205327   180.92835060
 O     34  27  21     1.351264663710   112.37718595   179.06726680
 O     34  27  21     1.222560334976   124.40610999   359.07932637
 C     35  34  27     1.453437000264   115.19186131   179.93110747
 H     37  35  34     1.091994373896   109.80399556   299.30034631
 H     37  35  34     1.088808775763   104.94064524   179.83551340
 H     37  35  34     1.092018501649   109.78860349    60.35664489
 C     17  14  12     1.368365821974   123.81866392   190.71615146
 C     41  17  14     1.500327775780   120.52875799   181.36526036
 O     41  17  14     1.317252847003   123.62899161     0.59562226
 H     17  14  12     1.084904540696   116.54266577    13.11851074
 C     42  41  17     1.410466251928   123.57622158   348.88875924
 C     42  41  17     1.397874159178   118.10011936   169.27432664
 C     46  42  41     1.400532180907   121.21797428   180.22998167
 H     46  42  41     1.084920323523   119.15230281     0.08434366
 C     45  42  41     1.389274916334   120.20922352   179.87836460
 C     47  46  42     1.398040391123   120.31782466   359.73066137
 H     50  47  46     1.083879218064   121.52526508   180.25638835
 H     45  42  41     1.084900109289   120.47238532   358.81993624
 H     49  45  42     1.087165133426   119.63760778   179.67051004
 O     47  46  42     1.374307431450   115.60459408   179.80631571
 C     54  47  46     1.436065883832   117.03112086   179.68765685
 H     55  54  47     1.096361153635   110.83037112   299.11276980
 H     55  54  47     1.090274777254   105.50472491   180.10998948
 H     55  54  47     1.096331365388   110.84448399    61.11609423
 Li    43  41  17     1.722384540542   137.46229168    36.97273187

---------------------------
INTERNAL COORDINATES (A.U.)
---------------------------
 C      0   0   0     0.000000000000     0.00000000     0.00000000
 C      1   0   0     2.651230688579     0.00000000     0.00000000
 C      2   1   0     2.640602305304   119.44072245     0.00000000
 C      3   2   1     2.628925151921   121.05267616     0.31634042
 C      4   3   2     2.657592222022   119.45768446   359.54386923
 C      1   2   3     2.640618806595   119.82053897     0.13295314
 H      6   1   2     2.051057187563   119.89175302   179.71629875
 H      2   1   3     2.048411776913   120.94951482   179.95003255
 H      3   2   1     2.052713041317   119.03641356   180.19592657
 H      4   3   2     2.048486576127   119.75724896   180.13959059
 C      5   4   3     2.826246355762   122.12008062   180.75201739
 C     11   5   4     2.867317306848   118.22514323   355.15445055
 O     11   5   4     2.325089669052   120.60928416   173.96777355
 C     12  11   5     2.913893993497   114.73210376   192.83166273
 H     12  11   5     2.078553064286   107.16637361    71.95011562
 H     12  11   5     2.070869301286   110.01155785   317.35300820
 C     14  12  11     2.859911314699   108.77970271   190.61185942
 C     14  12  11     2.874770516359   109.90965288    66.78484405
 H     14  12  11     2.077144071051   107.69970701   311.06567001
 C     18  14  12     2.655851747227   120.55108403    72.73843085
 C     20  18  14     2.628270841443   120.93095469   178.28753390
 O      1   2   3     2.583634166056   124.16139917   180.11671629
 C     22   1   2     2.719821916408   117.32591522     0.19205068
 H     23  22   1     2.070677959973   110.71216079   298.89349977
 H     23  22   1     2.059304004517   105.32240900   179.96703776
 H     23  22   1     2.070716160931   110.68945593    61.03430680
 C     21  20  18     2.654903272900   120.56485541   359.94391754
 C     27  21  20     2.654768854254   119.13300291     0.82255393
 C     28  27  21     2.640553897760   119.94494438   359.40647493
 H     29  28  27     2.052215074414   119.84511138   179.74607138
 H     28  27  21     2.049384271540   120.00353466   179.58286206
 H     20  18  14     2.053193909735   119.01458521     0.51346567
 H     21  20  18     2.051099736510   120.60080755   180.89524647
 C     27  21  20     2.808336499790   118.42205327   180.92835060
 O     34  27  21     2.553520148857   112.37718595   179.06726680
 O     34  27  21     2.310304215299   124.40610999   359.07932637
 C     35  34  27     2.746597883407   115.19186131   179.93110747
 H     37  35  34     2.063570306445   109.80399556   299.30034631
 H     37  35  34     2.057550398402   104.94064524   179.83551340
 H     37  35  34     2.063615901293   109.78860349    60.35664489
 C     17  14  12     2.585836654549   123.81866392   190.71615146
 C     41  17  14     2.835208607339   120.52875799   181.36526036
 O     41  17  14     2.489247129964   123.62899161     0.59562226
 H     17  14  12     2.050172463363   116.54266577    13.11851074
 C     42  41  17     2.665394937283   123.57622158   348.88875924
 C     42  41  17     2.641599330531   118.10011936   169.27432664
 C     46  42  41     2.646622263657   121.21797428   180.22998167
 H     46  42  41     2.050202288584   119.15230281     0.08434366
 C     45  42  41     2.625349116598   120.20922352   179.87836460
 C     47  46  42     2.641913463382   120.31782466   359.73066137
 H     50  47  46     2.048234884390   121.52526508   180.25638835
 H     45  42  41     2.050164089218   120.47238532   358.81993624
 H     49  45  42     2.054444364523   119.63760778   179.67051004
 O     47  46  42     2.597064669253   115.60459408   179.80631571
 C     54  47  46     2.713771230710   117.03112086   179.68765685
 H     55  54  47     2.071822324241   110.83037112   299.11276980
 H     55  54  47     2.060320739733   105.50472491   180.10998948
 H     55  54  47     2.071766032610   110.84448399    61.11609423
 Li    43  41  17     3.254835078923   137.46229168    36.97273187

---------------------
BASIS SET INFORMATION
---------------------
There are 4 groups of distinct atoms

 Group   1 Type C   : 15s8p3d2f1g contracted to 7s4p3d2f1g pattern {8211111/5111/111/11/1}
 Group   2 Type H   : 7s3p2d1f contracted to 4s3p2d1f pattern {4111/111/11/1}
 Group   3 Type O   : 15s8p3d2f1g contracted to 7s4p3d2f1g pattern {8211111/5111/111/11/1}
 Group   4 Type Li  : 15s6p2d1f contracted to 6s4p2d1f pattern {921111/3111/11/1}

Atom   0C    basis set group =>   1
Atom   1C    basis set group =>   1
Atom   2C    basis set group =>   1
Atom   3C    basis set group =>   1
Atom   4C    basis set group =>   1
Atom   5C    basis set group =>   1
Atom   6H    basis set group =>   2
Atom   7H    basis set group =>   2
Atom   8H    basis set group =>   2
Atom   9H    basis set group =>   2
Atom  10C    basis set group =>   1
Atom  11C    basis set group =>   1
Atom  12O    basis set group =>   3
Atom  13C    basis set group =>   1
Atom  14H    basis set group =>   2
Atom  15H    basis set group =>   2
Atom  16C    basis set group =>   1
Atom  17C    basis set group =>   1
Atom  18H    basis set group =>   2
Atom  19C    basis set group =>   1
Atom  20C    basis set group =>   1
Atom  21O    basis set group =>   3
Atom  22C    basis set group =>   1
Atom  23H    basis set group =>   2
Atom  24H    basis set group =>   2
Atom  25H    basis set group =>   2
Atom  26C    basis set group =>   1
Atom  27C    basis set group =>   1
Atom  28C    basis set group =>   1
Atom  29H    basis set group =>   2
Atom  30H    basis set group =>   2
Atom  31H    basis set group =>   2
Atom  32H    basis set group =>   2
Atom  33C    basis set group =>   1
Atom  34O    basis set group =>   3
Atom  35O    basis set group =>   3
Atom  36C    basis set group =>   1
Atom  37H    basis set group =>   2
Atom  38H    basis set group =>   2
Atom  39H    basis set group =>   2
Atom  40C    basis set group =>   1
Atom  41C    basis set group =>   1
Atom  42O    basis set group =>   3
Atom  43H    basis set group =>   2
Atom  44C    basis set group =>   1
Atom  45C    basis set group =>   1
Atom  46C    basis set group =>   1
Atom  47H    basis set group =>   2
Atom  48C    basis set group =>   1
Atom  49C    basis set group =>   1
Atom  50H    basis set group =>   2
Atom  51H    basis set group =>   2
Atom  52H    basis set group =>   2
Atom  53O    basis set group =>   3
Atom  54C    basis set group =>   1
Atom  55H    basis set group =>   2
Atom  56H    basis set group =>   2
Atom  57H    basis set group =>   2
Atom  58Li   basis set group =>   4
----------------------------------
AUXILIARY/JK BASIS SET INFORMATION
----------------------------------
There are 4 groups of distinct atoms

 Group   1 Type C   : 14s10p6d2f1g contracted to 10s8p5d1f1g pattern {5111111111/31111111/21111/2/1}
 Group   2 Type H   : 4s2p2d contracted to 2s2p2d pattern {31/11/11}
 Group   3 Type O   : 14s10p6d2f1g contracted to 10s8p4d2f1g pattern {5111111111/31111111/3111/11/1}
 Group   4 Type Li  : 10s7p4d2f contracted to 7s5p3d2f pattern {4111111/31111/211/11}

Atom   0C    basis set group =>   1
Atom   1C    basis set group =>   1
Atom   2C    basis set group =>   1
Atom   3C    basis set group =>   1
Atom   4C    basis set group =>   1
Atom   5C    basis set group =>   1
Atom   6H    basis set group =>   2
Atom   7H    basis set group =>   2
Atom   8H    basis set group =>   2
Atom   9H    basis set group =>   2
Atom  10C    basis set group =>   1
Atom  11C    basis set group =>   1
Atom  12O    basis set group =>   3
Atom  13C    basis set group =>   1
Atom  14H    basis set group =>   2
Atom  15H    basis set group =>   2
Atom  16C    basis set group =>   1
Atom  17C    basis set group =>   1
Atom  18H    basis set group =>   2
Atom  19C    basis set group =>   1
Atom  20C    basis set group =>   1
Atom  21O    basis set group =>   3
Atom  22C    basis set group =>   1
Atom  23H    basis set group =>   2
Atom  24H    basis set group =>   2
Atom  25H    basis set group =>   2
Atom  26C    basis set group =>   1
Atom  27C    basis set group =>   1
Atom  28C    basis set group =>   1
Atom  29H    basis set group =>   2
Atom  30H    basis set group =>   2
Atom  31H    basis set group =>   2
Atom  32H    basis set group =>   2
Atom  33C    basis set group =>   1
Atom  34O    basis set group =>   3
Atom  35O    basis set group =>   3
Atom  36C    basis set group =>   1
Atom  37H    basis set group =>   2
Atom  38H    basis set group =>   2
Atom  39H    basis set group =>   2
Atom  40C    basis set group =>   1
Atom  41C    basis set group =>   1
Atom  42O    basis set group =>   3
Atom  43H    basis set group =>   2
Atom  44C    basis set group =>   1
Atom  45C    basis set group =>   1
Atom  46C    basis set group =>   1
Atom  47H    basis set group =>   2
Atom  48C    basis set group =>   1
Atom  49C    basis set group =>   1
Atom  50H    basis set group =>   2
Atom  51H    basis set group =>   2
Atom  52H    basis set group =>   2
Atom  53O    basis set group =>   3
Atom  54C    basis set group =>   1
Atom  55H    basis set group =>   2
Atom  56H    basis set group =>   2
Atom  57H    basis set group =>   2
Atom  58Li   basis set group =>   4


           ************************************************************
           *        Program running with 8 parallel MPI-processes     *
           *              working on a common directory               *
           ************************************************************
------------------------------------------------------------------------------
                           ORCA GTO INTEGRAL CALCULATION
                           -- RI-GTO INTEGRALS CHOSEN --
------------------------------------------------------------------------------
------------------------------------------------------------------------------
                   ___                                                        
                  /   \      - P O W E R E D   B Y -                         
                 /     \                                                     
                 |  |  |   _    _      __       _____    __    __             
                 |  |  |  | |  | |    /  \     |  _  \  |  |  /  |          
                  \  \/   | |  | |   /    \    | | | |  |  | /  /          
                 / \  \   | |__| |  /  /\  \   | |_| |  |  |/  /          
                |  |  |   |  __  | /  /__\  \  |    /   |      \           
                |  |  |   | |  | | |   __   |  |    \   |  |\   \          
                \     /   | |  | | |  |  |  |  | |\  \  |  | \   \       
                 \___/    |_|  |_| |__|  |__|  |_| \__\ |__|  \__/        
                                                                              
                      - O R C A' S   B I G   F R I E N D -                    
                                      &                                       
                       - I N T E G R A L  F E E D E R -                       
                                                                              
 v1 FN, 2020, v2 2021                                                         
------------------------------------------------------------------------------


Reading SHARK input file Diketon-Li_sp.SHARKINP.tmp ... ok
----------------------
SHARK INTEGRAL PACKAGE
----------------------

Number of atoms                             ...     59
Number of basis functions                   ...   2666
Number of shells                            ...    824
Maximum angular momentum                    ...      4
Integral batch strategy                     ... SHARK/LIBINT Hybrid
RI-J (if used) integral strategy            ... SPLIT-RIJ (Revised 2003 algorithm where possible)
Printlevel                                  ...      1
Contraction scheme used                     ... SEGMENTED contraction
Coulomb Range Separation                    ... NOT USED
Exchange Range Separation                   ... NOT USED
Finite Nucleus Model                        ... NOT USED
Auxiliary Coulomb fitting basis             ... NOT available
Auxiliary J/K fitting basis                 ... AVAILABLE
   # of basis functions in Aux-JK           ...   2988
   # of shells in Aux-JK                    ...    992
   Maximum angular momentum in Aux-JK       ...      4
Auxiliary Correlation fitting basis         ... NOT available
Auxiliary 'external' fitting basis          ... NOT available
Integral threshold                          ...     2.500000e-11
Primitive cut-off                           ...     2.500000e-12
Primitive pair pre-selection threshold      ...     2.500000e-12

Calculating pre-screening integrals         ... done (  3.1 sec) Dimension = 824
Organizing shell pair data                  ... done (  6.1 sec)
Shell pair information
Total number of shell pairs                 ...    339900
Shell pairs after pre-screening             ...    145369
Total number of primitive shell pairs       ...    854948
Primitive shell pairs kept                  ...    249512
          la=0 lb=0:  23046 shell pairs
          la=1 lb=0:  34142 shell pairs
          la=1 lb=1:  12254 shell pairs
          la=2 lb=0:  19809 shell pairs
          la=2 lb=1:  14956 shell pairs
          la=2 lb=2:   4379 shell pairs
          la=3 lb=0:  11483 shell pairs
          la=3 lb=1:   8700 shell pairs
          la=3 lb=2:   4916 shell pairs
          la=3 lb=3:   1442 shell pairs
          la=4 lb=0:   4147 shell pairs
          la=4 lb=1:   3149 shell pairs
          la=4 lb=2:   1751 shell pairs
          la=4 lb=3:   1003 shell pairs
          la=4 lb=4:    192 shell pairs

Calculating one electron integrals          ... done (  1.4 sec)
Calculating RI/JK V-Matrix + Cholesky decomp... done (  1.2 sec)
Calculating Nuclear repulsion               ... done (  0.0 sec) ENN=   3113.941168921579 Eh

SHARK setup successfully completed in  20.4 seconds

Maximum memory used throughout the entire GTOINT-calculation: 278.2 MB


           ************************************************************
           *        Program running with 8 parallel MPI-processes     *
           *              working on a common directory               *
           ************************************************************
-------------------------------------------------------------------------------
                                 ORCA SCF
-------------------------------------------------------------------------------

------------
SCF SETTINGS
------------
Hamiltonian:
 Density Functional     Method          .... DFT(GTOs)
 Exchange Functional    Exchange        .... PW6
 Correlation Functional Correlation     .... B95
 Gradients option       PostSCFGGA      .... off
 Hybrid DFT is turned on
   Fraction HF Exchange ScalHFX         ....  0.280000
   Scaling of DF-GGA-X  ScalDFX         ....  0.720000
   Scaling of DF-GGA-C  ScalDFC         ....  1.000000
   Scaling of DF-LDA-C  ScalLDAC        ....  1.000000
   Perturbative correction              ....  0.000000
   Density functional embedding theory  .... OFF
   NL short-range parameter             ....  9.000000
 RI-approximation to the Coulomb term is turned on
   Number of AuxJK basis functions      .... 2988
   RI-JK (J+K treated both via RI)      .... on


General Settings:
 Integral files         IntName         .... Diketon-Li_sp
 Hartree-Fock type      HFTyp           .... RHF
 Total Charge           Charge          ....    0
 Multiplicity           Mult            ....    1
 Number of Electrons    NEL             ....  238
 Basis Dimension        Dim             .... 2666
 Nuclear Repulsion      ENuc            ....   3113.9411689216 Eh

Convergence Acceleration:
 DIIS                   CNVDIIS         .... on
   Start iteration      DIISMaxIt       ....    12
   Startup error        DIISStart       ....  0.200000
   # of expansion vecs  DIISMaxEq       ....     5
   Bias factor          DIISBfac        ....   1.050
   Max. coefficient     DIISMaxC        ....  10.000
 Trust-Rad. Augm. Hess. CNVTRAH         .... auto
   Auto Start mean grad. ratio tolernc. ....  1.125000
   Auto Start start iteration           ....    20
   Auto Start num. interpolation iter.  ....    10
   Max. Number of Micro iterations      ....    16
   Max. Number of Macro iterations      .... Maxiter - #DIIS iter
   Number of Davidson start vectors     ....     2
   Converg. threshold I  (grad. norm)   ....   1.000e-05
   Converg. threshold II (energy diff.) ....   1.000e-08
   Grad. Scal. Fac. for Micro threshold ....   0.100
   Minimum threshold for Micro iter.    ....   0.010
   NR start threshold (gradient norm)   ....   0.001
   Initial trust radius                 ....   0.400
   Minimum AH scaling param. (alpha)    ....   1.000
   Maximum AH scaling param. (alpha)    .... 1000.000
   Orbital update algorithm             .... Taylor
   White noise on init. David. guess    .... on
   Maximum white noise                  ....   0.010
   Quad. conv. algorithm                .... NR
 SOSCF                  CNVSOSCF        .... on
   Start iteration      SOSCFMaxIt      ....   150
   Startup grad/error   SOSCFStart      ....  0.003300
 Level Shifting         CNVShift        .... on
   Level shift para.    LevelShift      ....    0.2500
   Turn off err/grad.   ShiftErr        ....    0.0010
 Zerner damping         CNVZerner       .... off
 Static damping         CNVDamp         .... on
   Fraction old density DampFac         ....    0.7000
   Max. Damping (<1)    DampMax         ....    0.9800
   Min. Damping (>=0)   DampMin         ....    0.0000
   Turn off err/grad.   DampErr         ....    0.1000
 Fernandez-Rico         CNVRico         .... off

SCF Procedure:
 Maximum # iterations   MaxIter         ....   125
 SCF integral mode      SCFMode         .... Direct
   Integral package                     .... SHARK and LIBINT hybrid scheme
 Reset frequency        DirectResetFreq ....    20
 Integral Threshold     Thresh          ....  2.500e-11 Eh
 Primitive CutOff       TCut            ....  2.500e-12 Eh

Convergence Tolerance:
 Convergence Check Mode ConvCheckMode   .... Total+1el-Energy
 Convergence forced     ConvForced      .... 0
 Energy Change          TolE            ....  1.000e-08 Eh
 1-El. energy change                    ....  1.000e-05 Eh
 Orbital Gradient       TolG            ....  1.000e-05
 Orbital Rotation angle TolX            ....  1.000e-05
 DIIS Error             TolErr          ....  5.000e-07


Diagonalization of the overlap matrix:
Smallest eigenvalue                        ... 4.488e-06
Time for diagonalization                   ...    4.559 sec
Threshold for overlap eigenvalues          ... 1.000e-08
Number of eigenvalues below threshold      ... 0
Time for construction of square roots      ...    3.303 sec
Total time needed                          ...    7.919 sec

Time for model grid setup =    5.120 sec

------------------------------
INITIAL GUESS: MODEL POTENTIAL
------------------------------
Loading Hartree-Fock densities                     ... done
Calculating cut-offs                               ... done
Initializing the effective Hamiltonian             ... done
Setting up the integral package (SHARK)            ... done
Starting the Coulomb interaction                   ... done (  10.0 sec)
Reading the grid                                   ... done
Mapping shells                                     ... done
Starting the XC term evaluation                    ... done (   4.5 sec)
  promolecular density results
     # of electrons  =    237.986055851
     EX              =   -200.445289439
     EC              =    -15.311040929
     EX+EC           =   -215.756330368
Transforming the Hamiltonian                       ... done (   2.7 sec)
Diagonalizing the Hamiltonian                      ... done (   4.7 sec)
Back transforming the eigenvectors                 ... done (   1.4 sec)
Now organizing SCF variables                       ... done
                      ------------------
                      INITIAL GUESS DONE (  28.9 sec)
                      ------------------
-------------------
DFT GRID GENERATION
-------------------

General Integration Accuracy     IntAcc      ... 4.388
Radial Grid Type                 RadialGrid  ... OptM3 with GC (2021)
Angular Grid (max. ang.)         AngularGrid ... 4 (Lebedev-302)
Angular grid pruning method      GridPruning ... 4 (adaptive)
Weight generation scheme         WeightScheme... Becke
Basis function cutoff            BFCut       ... 1.0000e-11
Integration weight cutoff        WCut        ... 1.0000e-14
Angular grids for H and He will be reduced by one unit
Partially contracted basis set               ... off
Rotationally invariant grid construction     ... off

Total number of grid points                  ...   289791
Total number of batches                      ...     4558
Average number of points per batch           ...       63
Average number of grid points per atom       ...     4912
Time for grid setup =   13.790 sec


--------------------
CPCM SOLVATION MODEL
--------------------
CPCM parameters:
  Epsilon                                         ...       7.2500
  Refrac                                          ...       1.4070
  Rsolv                                           ...       1.3000
  Surface type                                    ... GAUSSIAN VDW
  Epsilon function type                           ...         CPCM
Radii:
 Radius for C  used is    3.8550 Bohr (=   2.0400 Ang.)
 Radius for H  used is    2.4944 Bohr (=   1.3200 Ang.)
 Radius for O  used is    3.4469 Bohr (=   1.8240 Ang.)
 Radius for Li used is    4.1272 Bohr (=   2.1840 Ang.)
Calculating surface                               ...        done! (  0.0s)
GEPOL surface points                              ...         3033
GEPOL Volume                                      ...    3683.5762
GEPOL Surface-area                                ...    1827.4759
Calculating surface distance matrix               ...        done! (  0.2s)
Performing Cholesky decomposition & store         ...        done! (  1.2s)
Overall time for CPCM initialization              ...                 1.5s

Warning (ORCA_SCF): Not enough memory available!
                    Memory available for SCF calculation:         1024 MB
                    Memory needed (estimated)           :         1323 MB


--------------
SCF ITERATIONS
--------------
ITER       Energy         Delta-E        Max-DP      RMS-DP      [F,P]     Damp
  0  -1504.2688794223   0.000000000000 0.04785452  0.00025078  0.4582886 0.7000
  1  -1504.2070136246   0.061865797702 0.08103189  0.00025138  0.2434364 0.7000
                               ***Turning on DIIS***
  2  -1504.5392965677  -0.332282943071 0.15537141  0.00047414  0.0616199 0.0000
  3  -1505.2453915854  -0.706095017649 0.03384141  0.00007723  0.1563457 0.7000
  4  -1505.4037675739  -0.158375988534 0.04147818  0.00008728  0.1192028 0.7000
  5  -1505.4461342353  -0.042366661439 0.12361011  0.00024177  0.0750388 0.0000
  6  -1505.4159825883   0.030151647071 0.00748617  0.00002001  0.0116138 0.0000
                      *** Initiating the SOSCF procedure ***
                           *** Shutting down DIIS ***
                      *** Re-Reading the Fockian *** 
                      *** Removing any level shift *** 
ITER      Energy       Delta-E        Grad      Rot      Max-DP    RMS-DP
  7  -1505.41690238  -0.0009197904  0.000299  0.000299  0.003172  0.000008
  8  -1505.41692770  -0.0000253216  0.000193  0.000896  0.002209  0.000006
  9  -1505.41692322   0.0000044793  0.000296  0.000699  0.000470  0.000002
 10  -1505.41693650  -0.0000132825  0.000040  0.000163  0.000498  0.000001
 11  -1505.41693632   0.0000001880  0.000060  0.000118  0.000209  0.000001
 12  -1505.41693692  -0.0000006004  0.000016  0.000053  0.000109  0.000000
 13  -1505.41693690   0.0000000154  0.000017  0.000025  0.000095  0.000000
                  ***Gradient check signals convergence***
              ***Rediagonalizing the Fockian in SOSCF/NRSCF***

               *****************************************************
               *                     SUCCESS                       *
               *           SCF CONVERGED AFTER  14 CYCLES          *
               *****************************************************


----------------
TOTAL SCF ENERGY
----------------

Total Energy       :        -1505.41693693 Eh          -40964.47745 eV

Components:
Nuclear Repulsion  :         3113.94116892 Eh           84734.64703 eV
Electronic Energy  :        -4619.35810585 Eh         -125699.12448 eV
One Electron Energy:        -8241.26997228 Eh         -224256.35692 eV
Two Electron Energy:         3621.91186642 Eh           98557.23244 eV
CPCM Dielectric    :           -0.03682616 Eh              -1.00209 eV

Virial components:
Potential Energy   :        -3003.63079839 Eh          -81732.94925 eV
Kinetic Energy     :         1498.21386146 Eh           40768.47180 eV
Virial Ratio       :            2.00480778


DFT components:
N(Alpha)           :      119.000054215847 electrons
N(Beta)            :      119.000054215847 electrons
N(Total)           :      238.000108431694 electrons
E(X)               :     -147.078516036914 Eh       
E(C)               :       -8.447151088943 Eh       
E(XC)              :     -155.525667125857 Eh       
DFET-embed. en.    :        0.000000000000 Eh       
CPCM Solvation Model Properties:
Surface-charge          :           -0.04379456
Charge-correction       :           -0.00023508 Eh              -0.00640 eV
Free-energy (cav+disp)  :  This term is not implemented in the current solvation scheme

---------------
SCF CONVERGENCE
---------------

  Last Energy change         ...   -3.2658e-08  Tolerance :   1.0000e-08
  Last MAX-Density change    ...    1.0121e-04  Tolerance :   1.0000e-07
  Last RMS-Density change    ...    3.8243e-07  Tolerance :   5.0000e-09
  Last Orbital Gradient      ...    9.5974e-07  Tolerance :   1.0000e-05
  Last Orbital Rotation      ...    4.3871e-06  Tolerance :   1.0000e-05

             **** THE GBW FILE WAS UPDATED (Diketon-Li_sp.gbw) ****
             **** DENSITY Diketon-Li_sp.scfp WAS UPDATED ****
             **** ENERGY FILE WAS UPDATED (Diketon-Li_sp.en.tmp) ****
             **** THE GBW FILE WAS UPDATED (Diketon-Li_sp.gbw) ****
             **** DENSITY Diketon-Li_sp.scfp WAS UPDATED ****
----------------
ORBITAL ENERGIES
----------------

  NO   OCC          E(Eh)            E(eV) 
   0   2.0000     -19.350762      -526.5610 
   1   2.0000     -19.332433      -526.0623 
   2   2.0000     -19.322798      -525.8001 
   3   2.0000     -19.294870      -525.0401 
   4   2.0000     -19.291540      -524.9495 
   5   2.0000     -19.231278      -523.3097 
   6   2.0000     -10.441445      -284.1262 
   7   2.0000     -10.395568      -282.8778 
   8   2.0000     -10.371112      -282.2123 
   9   2.0000     -10.356132      -281.8047 
  10   2.0000     -10.349723      -281.6303 
  11   2.0000     -10.346006      -281.5291 
  12   2.0000     -10.340007      -281.3659 
  13   2.0000     -10.334904      -281.2270 
  14   2.0000     -10.334257      -281.2094 
  15   2.0000     -10.333006      -281.1754 
  16   2.0000     -10.329093      -281.0689 
  17   2.0000     -10.325499      -280.9711 
  18   2.0000     -10.319830      -280.8169 
  19   2.0000     -10.319181      -280.7992 
  20   2.0000     -10.317180      -280.7447 
  21   2.0000     -10.313079      -280.6331 
  22   2.0000     -10.312211      -280.6095 
  23   2.0000     -10.311613      -280.5932 
  24   2.0000     -10.308682      -280.5135 
  25   2.0000     -10.308101      -280.4977 
  26   2.0000     -10.307296      -280.4758 
  27   2.0000     -10.302404      -280.3427 
  28   2.0000     -10.297637      -280.2130 
  29   2.0000     -10.293149      -280.0908 
  30   2.0000     -10.288468      -279.9635 
  31   2.0000     -10.286344      -279.9056 
  32   2.0000     -10.261737      -279.2361 
  33   2.0000      -2.027763       -55.1782 
  34   2.0000      -1.142208       -31.0811 
  35   2.0000      -1.098109       -29.8811 
  36   2.0000      -1.087025       -29.5794 
  37   2.0000      -1.075377       -29.2625 
  38   2.0000      -1.054820       -28.7031 
  39   2.0000      -0.997898       -27.1542 
  40   2.0000      -0.910946       -24.7881 
  41   2.0000      -0.891227       -24.2515 
  42   2.0000      -0.872122       -23.7316 
  43   2.0000      -0.846494       -23.0343 
  44   2.0000      -0.804407       -21.8890 
  45   2.0000      -0.792470       -21.5642 
  46   2.0000      -0.790173       -21.5017 
  47   2.0000      -0.787537       -21.4300 
  48   2.0000      -0.776565       -21.1314 
  49   2.0000      -0.772553       -21.0222 
  50   2.0000      -0.748961       -20.3803 
  51   2.0000      -0.732882       -19.9427 
  52   2.0000      -0.721867       -19.6430 
  53   2.0000      -0.710417       -19.3314 
  54   2.0000      -0.688477       -18.7344 
  55   2.0000      -0.657895       -17.9022 
  56   2.0000      -0.647283       -17.6135 
  57   2.0000      -0.636320       -17.3152 
  58   2.0000      -0.629262       -17.1231 
  59   2.0000      -0.613148       -16.6846 
  60   2.0000      -0.606350       -16.4996 
  61   2.0000      -0.594608       -16.1801 
  62   2.0000      -0.573488       -15.6054 
  63   2.0000      -0.565183       -15.3794 
  64   2.0000      -0.556193       -15.1348 
  65   2.0000      -0.546963       -14.8836 
  66   2.0000      -0.524023       -14.2594 
  67   2.0000      -0.515298       -14.0220 
  68   2.0000      -0.510184       -13.8828 
  69   2.0000      -0.509467       -13.8633 
  70   2.0000      -0.507969       -13.8225 
  71   2.0000      -0.504570       -13.7301 
  72   2.0000      -0.496675       -13.5152 
  73   2.0000      -0.493865       -13.4387 
  74   2.0000      -0.489641       -13.3238 
  75   2.0000      -0.482426       -13.1275 
  76   2.0000      -0.481387       -13.0992 
  77   2.0000      -0.478693       -13.0259 
  78   2.0000      -0.475760       -12.9461 
  79   2.0000      -0.472489       -12.8571 
  80   2.0000      -0.465185       -12.6583 
  81   2.0000      -0.458391       -12.4734 
  82   2.0000      -0.453220       -12.3327 
  83   2.0000      -0.447879       -12.1874 
  84   2.0000      -0.440197       -11.9784 
  85   2.0000      -0.437065       -11.8932 
  86   2.0000      -0.433881       -11.8065 
  87   2.0000      -0.433329       -11.7915 
  88   2.0000      -0.423972       -11.5369 
  89   2.0000      -0.418475       -11.3873 
  90   2.0000      -0.412076       -11.2132 
  91   2.0000      -0.409088       -11.1319 
  92   2.0000      -0.401643       -10.9293 
  93   2.0000      -0.395093       -10.7510 
  94   2.0000      -0.393955       -10.7201 
  95   2.0000      -0.389252       -10.5921 
  96   2.0000      -0.387833       -10.5535 
  97   2.0000      -0.384942       -10.4748 
  98   2.0000      -0.380240       -10.3468 
  99   2.0000      -0.373020       -10.1504 
 100   2.0000      -0.372544       -10.1374 
 101   2.0000      -0.366222        -9.9654 
 102   2.0000      -0.359063        -9.7706 
 103   2.0000      -0.354847        -9.6559 
 104   2.0000      -0.352000        -9.5784 
 105   2.0000      -0.348017        -9.4700 
 106   2.0000      -0.339479        -9.2377 
 107   2.0000      -0.336606        -9.1595 
 108   2.0000      -0.333053        -9.0628 
 109   2.0000      -0.315437        -8.5835 
 110   2.0000      -0.298189        -8.1141 
 111   2.0000      -0.292816        -7.9679 
 112   2.0000      -0.284063        -7.7298 
 113   2.0000      -0.280965        -7.6454 
 114   2.0000      -0.265166        -7.2155 
 115   2.0000      -0.257649        -7.0110 
 116   2.0000      -0.250530        -6.8173 
 117   2.0000      -0.238935        -6.5017 
 118   2.0000      -0.199178        -5.4199 
 119   0.0000      -0.064157        -1.7458 
 120   0.0000      -0.063254        -1.7212 
 121   0.0000      -0.030316        -0.8249 
 122   0.0000      -0.017947        -0.4883 
 123   0.0000      -0.010153        -0.2763 
 124   0.0000      -0.008760        -0.2384 
 125   0.0000       0.004983         0.1356 
 126   0.0000       0.014430         0.3927 
 127   0.0000       0.015109         0.4111 
 128   0.0000       0.016334         0.4445 
 129   0.0000       0.031227         0.8497 
 130   0.0000       0.034210         0.9309 
 131   0.0000       0.036221         0.9856 
 132   0.0000       0.039956         1.0872 
 133   0.0000       0.042419         1.1543 
 134   0.0000       0.044184         1.2023 
 135   0.0000       0.050519         1.3747 
 136   0.0000       0.051307         1.3961 
 137   0.0000       0.056382         1.5342 
 138   0.0000       0.063891         1.7386 
 139   0.0000       0.065853         1.7920 
 140   0.0000       0.068110         1.8534 
 141   0.0000       0.069753         1.8981 
 142   0.0000       0.073868         2.0101 
 143   0.0000       0.077834         2.1180 
 144   0.0000       0.079494         2.1631 
 145   0.0000       0.080323         2.1857 
 146   0.0000       0.082082         2.2336 
 147   0.0000       0.086765         2.3610 
 148   0.0000       0.090256         2.4560 
 149   0.0000       0.092331         2.5125 
 150   0.0000       0.093982         2.5574 
 151   0.0000       0.096463         2.6249 
 152   0.0000       0.102656         2.7934 
 153   0.0000       0.103493         2.8162 
 154   0.0000       0.104696         2.8489 
 155   0.0000       0.106343         2.8938 
 156   0.0000       0.110392         3.0039 
 157   0.0000       0.114031         3.1029 
 158   0.0000       0.116798         3.1782 
 159   0.0000       0.119584         3.2540 
 160   0.0000       0.121532         3.3071 
 161   0.0000       0.126337         3.4378 
 162   0.0000       0.127574         3.4715 
 163   0.0000       0.131311         3.5731 
 164   0.0000       0.132054         3.5934 
 165   0.0000       0.133784         3.6404 
 166   0.0000       0.135614         3.6902 
 167   0.0000       0.139886         3.8065 
 168   0.0000       0.142627         3.8811 
 169   0.0000       0.146563         3.9882 
 170   0.0000       0.147854         4.0233 
 171   0.0000       0.149220         4.0605 
 172   0.0000       0.153718         4.1829 
 173   0.0000       0.154698         4.2095 
 174   0.0000       0.157894         4.2965 
 175   0.0000       0.159247         4.3333 
 176   0.0000       0.160088         4.3562 
 177   0.0000       0.162226         4.4144 
 178   0.0000       0.166006         4.5173 
 179   0.0000       0.168629         4.5886 
 180   0.0000       0.170627         4.6430 
 181   0.0000       0.174459         4.7473 
 182   0.0000       0.177855         4.8397 
 183   0.0000       0.182589         4.9685 
 184   0.0000       0.183351         4.9892 
 185   0.0000       0.185314         5.0427 
 186   0.0000       0.189441         5.1550 
 187   0.0000       0.194206         5.2846 
 188   0.0000       0.195388         5.3168 
 189   0.0000       0.198114         5.3910 
 190   0.0000       0.200205         5.4479 
 191   0.0000       0.204561         5.5664 
 192   0.0000       0.205628         5.5954 
 193   0.0000       0.209438         5.6991 
 194   0.0000       0.211846         5.7646 
 195   0.0000       0.213432         5.8078 
 196   0.0000       0.216055         5.8792 
 197   0.0000       0.221729         6.0336 
 198   0.0000       0.224503         6.1090 
 199   0.0000       0.224883         6.1194 
 200   0.0000       0.226772         6.1708 
 201   0.0000       0.229386         6.2419 
 202   0.0000       0.232870         6.3367 
 203   0.0000       0.236019         6.4224 
 204   0.0000       0.238537         6.4909 
 205   0.0000       0.240581         6.5465 
 206   0.0000       0.242356         6.5948 
 207   0.0000       0.244278         6.6471 
 208   0.0000       0.245598         6.6831 
 209   0.0000       0.246599         6.7103 
 210   0.0000       0.251781         6.8513 
 211   0.0000       0.253119         6.8877 
 212   0.0000       0.255703         6.9580 
 213   0.0000       0.258191         7.0257 
 214   0.0000       0.258978         7.0472 
 215   0.0000       0.260856         7.0982 
 216   0.0000       0.263770         7.1776 
 217   0.0000       0.264585         7.1997 
 218   0.0000       0.268768         7.3136 
 219   0.0000       0.270968         7.3734 
 220   0.0000       0.274315         7.4645 
 221   0.0000       0.276018         7.5108 
 222   0.0000       0.278880         7.5887 
 223   0.0000       0.281181         7.6513 
 224   0.0000       0.281846         7.6694 
 225   0.0000       0.286723         7.8021 
 226   0.0000       0.288803         7.8587 
 227   0.0000       0.291348         7.9280 
 228   0.0000       0.292276         7.9532 
 229   0.0000       0.296928         8.0798 
 230   0.0000       0.298418         8.1204 
 231   0.0000       0.300890         8.1876 
 232   0.0000       0.302801         8.2396 
 233   0.0000       0.304778         8.2934 
 234   0.0000       0.307054         8.3554 
 235   0.0000       0.308076         8.3832 
 236   0.0000       0.309515         8.4223 
 237   0.0000       0.311756         8.4833 
 238   0.0000       0.313837         8.5399 
 239   0.0000       0.316832         8.6214 
 240   0.0000       0.320841         8.7305 
 241   0.0000       0.321062         8.7365 
 242   0.0000       0.323252         8.7961 
 243   0.0000       0.323641         8.8067 
 244   0.0000       0.327089         8.9005 
 245   0.0000       0.329707         8.9718 
 246   0.0000       0.330723         8.9994 
 247   0.0000       0.333920         9.0864 
 248   0.0000       0.335000         9.1158 
 249   0.0000       0.335258         9.1228 
 250   0.0000       0.336212         9.1488 
 251   0.0000       0.336918         9.1680 
 252   0.0000       0.341870         9.3028 
 253   0.0000       0.343304         9.3418 
 254   0.0000       0.345504         9.4016 
 255   0.0000       0.345937         9.4134 
 256   0.0000       0.349610         9.5134 
 257   0.0000       0.350686         9.5426 
 258   0.0000       0.350990         9.5509 
 259   0.0000       0.353776         9.6267 
 260   0.0000       0.354854         9.6561 
 261   0.0000       0.357747         9.7348 
 262   0.0000       0.362954         9.8765 
 263   0.0000       0.363832         9.9004 
 264   0.0000       0.366716         9.9789 
 265   0.0000       0.367313         9.9951 
 266   0.0000       0.369767        10.0619 
 267   0.0000       0.373759        10.1705 
 268   0.0000       0.376572        10.2470 
 269   0.0000       0.378731        10.3058 
 270   0.0000       0.380322        10.3491 
 271   0.0000       0.383591        10.4380 
 272   0.0000       0.384745        10.4695 
 273   0.0000       0.389259        10.5923 
 274   0.0000       0.390622        10.6294 
 275   0.0000       0.397954        10.8289 
 276   0.0000       0.398629        10.8472 
 277   0.0000       0.400844        10.9075 
 278   0.0000       0.402896        10.9633 
 279   0.0000       0.403146        10.9702 
 280   0.0000       0.407335        11.0842 
 281   0.0000       0.408019        11.1028 
 282   0.0000       0.411159        11.1882 
 283   0.0000       0.412027        11.2118 
 284   0.0000       0.416395        11.3307 
 285   0.0000       0.421596        11.4722 
 286   0.0000       0.425946        11.5906 
 287   0.0000       0.430251        11.7077 
 288   0.0000       0.433375        11.7927 
 289   0.0000       0.434837        11.8325 
 290   0.0000       0.437726        11.9111 
 291   0.0000       0.439981        11.9725 
 292   0.0000       0.442909        12.0522 
 293   0.0000       0.445756        12.1296 
 294   0.0000       0.447661        12.1815 
 295   0.0000       0.451541        12.2871 
 296   0.0000       0.456333        12.4175 
 297   0.0000       0.458685        12.4814 
 298   0.0000       0.461396        12.5552 
 299   0.0000       0.462544        12.5865 
 300   0.0000       0.464219        12.6320 
 301   0.0000       0.466530        12.6949 
 302   0.0000       0.470102        12.7921 
 303   0.0000       0.471070        12.8185 
 304   0.0000       0.471980        12.8432 
 305   0.0000       0.477073        12.9818 
 306   0.0000       0.480527        13.0758 
 307   0.0000       0.481752        13.1091 
 308   0.0000       0.484681        13.1888 
 309   0.0000       0.487690        13.2707 
 310   0.0000       0.490739        13.3537 
 311   0.0000       0.493361        13.4250 
 312   0.0000       0.494060        13.4441 
 313   0.0000       0.498251        13.5581 
 314   0.0000       0.499707        13.5977 
 315   0.0000       0.501025        13.6336 
 316   0.0000       0.501482        13.6460 
 317   0.0000       0.506363        13.7788 
 318   0.0000       0.506904        13.7936 
 319   0.0000       0.510134        13.8815 
 320   0.0000       0.510796        13.8995 
 321   0.0000       0.513596        13.9757 
 322   0.0000       0.515541        14.0286 
 323   0.0000       0.520121        14.1532 
 324   0.0000       0.520760        14.1706 
 325   0.0000       0.526528        14.3276 
 326   0.0000       0.529910        14.4196 
 327   0.0000       0.534945        14.5566 
 328   0.0000       0.537027        14.6132 
 329   0.0000       0.537708        14.6318 
 330   0.0000       0.539440        14.6789 
 331   0.0000       0.542600        14.7649 
 332   0.0000       0.544109        14.8060 
 333   0.0000       0.548966        14.9381 
 334   0.0000       0.551980        15.0201 
 335   0.0000       0.555432        15.1141 
 336   0.0000       0.560251        15.2452 
 337   0.0000       0.560867        15.2620 
 338   0.0000       0.564288        15.3551 
 339   0.0000       0.564805        15.3691 
 340   0.0000       0.568053        15.4575 
 341   0.0000       0.568734        15.4760 
 342   0.0000       0.576373        15.6839 
 343   0.0000       0.579956        15.7814 
 344   0.0000       0.581686        15.8285 
 345   0.0000       0.583990        15.8912 
 346   0.0000       0.587343        15.9824 
 347   0.0000       0.588181        16.0052 
 348   0.0000       0.592805        16.1311 
 349   0.0000       0.593361        16.1462 
 350   0.0000       0.594921        16.1886 
 351   0.0000       0.598227        16.2786 
 352   0.0000       0.602507        16.3950 
 353   0.0000       0.605111        16.4659 
 354   0.0000       0.608366        16.5545 
 355   0.0000       0.609476        16.5847 
 356   0.0000       0.616265        16.7694 
 357   0.0000       0.619849        16.8670 
 358   0.0000       0.621393        16.9090 
 359   0.0000       0.625352        17.0167 
 360   0.0000       0.630243        17.1498 
 361   0.0000       0.632799        17.2193 
 362   0.0000       0.636074        17.3085 
 363   0.0000       0.637934        17.3591 
 364   0.0000       0.641184        17.4475 
 365   0.0000       0.646642        17.5960 
 366   0.0000       0.648143        17.6369 
 367   0.0000       0.649863        17.6837 
 368   0.0000       0.651385        17.7251 
 369   0.0000       0.653978        17.7957 
 370   0.0000       0.656654        17.8685 
 371   0.0000       0.658930        17.9304 
 372   0.0000       0.664850        18.0915 
 373   0.0000       0.668771        18.1982 
 374   0.0000       0.669281        18.2121 
 375   0.0000       0.675220        18.3737 
 376   0.0000       0.676590        18.4110 
 377   0.0000       0.678692        18.4682 
 378   0.0000       0.681779        18.5521 
 379   0.0000       0.684648        18.6302 
 380   0.0000       0.684993        18.6396 
 381   0.0000       0.692688        18.8490 
 382   0.0000       0.694422        18.8962 
 383   0.0000       0.694923        18.9098 
 384   0.0000       0.696144        18.9430 
 385   0.0000       0.699531        19.0352 
 386   0.0000       0.702802        19.1242 
 387   0.0000       0.705592        19.2001 
 388   0.0000       0.706397        19.2221 
 389   0.0000       0.711630        19.3644 
 390   0.0000       0.712378        19.3848 
 391   0.0000       0.713904        19.4263 
 392   0.0000       0.715633        19.4734 
 393   0.0000       0.719995        19.5920 
 394   0.0000       0.723410        19.6850 
 395   0.0000       0.725647        19.7459 
 396   0.0000       0.730196        19.8697 
 397   0.0000       0.732835        19.9414 
 398   0.0000       0.735510        20.0143 
 399   0.0000       0.735783        20.0217 
 400   0.0000       0.739482        20.1223 
 401   0.0000       0.740519        20.1505 
 402   0.0000       0.743427        20.2297 
 403   0.0000       0.745102        20.2753 
 404   0.0000       0.747674        20.3453 
 405   0.0000       0.750279        20.4161 
 406   0.0000       0.753639        20.5075 
 407   0.0000       0.756789        20.5933 
 408   0.0000       0.759345        20.6628 
 409   0.0000       0.762504        20.7488 
 410   0.0000       0.766795        20.8655 
 411   0.0000       0.768272        20.9057 
 412   0.0000       0.769480        20.9386 
 413   0.0000       0.773162        21.0388 
 414   0.0000       0.775337        21.0980 
 415   0.0000       0.778255        21.1774 
 416   0.0000       0.780881        21.2488 
 417   0.0000       0.782266        21.2865 
 418   0.0000       0.786601        21.4045 
 419   0.0000       0.789279        21.4774 
 420   0.0000       0.792704        21.5706 
 421   0.0000       0.795478        21.6461 
 422   0.0000       0.797552        21.7025 
 423   0.0000       0.799272        21.7493 
 424   0.0000       0.799893        21.7662 
 425   0.0000       0.800391        21.7798 
 426   0.0000       0.806473        21.9452 
 427   0.0000       0.807524        21.9738 
 428   0.0000       0.810818        22.0635 
 429   0.0000       0.815050        22.1786 
 430   0.0000       0.817841        22.2546 
 431   0.0000       0.820517        22.3274 
 432   0.0000       0.821815        22.3627 
 433   0.0000       0.824157        22.4265 
 434   0.0000       0.829218        22.5642 
 435   0.0000       0.831887        22.6368 
 436   0.0000       0.834223        22.7004 
 437   0.0000       0.837021        22.7765 
 438   0.0000       0.837978        22.8025 
 439   0.0000       0.841831        22.9074 
 440   0.0000       0.842729        22.9318 
 441   0.0000       0.844671        22.9847 
 442   0.0000       0.849308        23.1108 
 443   0.0000       0.849881        23.1264 
 444   0.0000       0.850877        23.1535 
 445   0.0000       0.851613        23.1736 
 446   0.0000       0.856202        23.2984 
 447   0.0000       0.858323        23.3562 
 448   0.0000       0.862750        23.4766 
 449   0.0000       0.865195        23.5432 
 450   0.0000       0.868195        23.6248 
 451   0.0000       0.870337        23.6831 
 452   0.0000       0.875321        23.8187 
 453   0.0000       0.877258        23.8714 
 454   0.0000       0.880804        23.9679 
 455   0.0000       0.881977        23.9998 
 456   0.0000       0.885388        24.0926 
 457   0.0000       0.886100        24.1120 
 458   0.0000       0.890247        24.2248 
 459   0.0000       0.892788        24.2940 
 460   0.0000       0.899608        24.4796 
 461   0.0000       0.902464        24.5573 
 462   0.0000       0.904818        24.6213 
 463   0.0000       0.906825        24.6760 
 464   0.0000       0.908421        24.7194 
 465   0.0000       0.910483        24.7755 
 466   0.0000       0.915581        24.9142 
 467   0.0000       0.918615        24.9968 
 468   0.0000       0.920814        25.0566 
 469   0.0000       0.922588        25.1049 
 470   0.0000       0.924610        25.1599 
 471   0.0000       0.926663        25.2158 
 472   0.0000       0.930385        25.3171 
 473   0.0000       0.932420        25.3724 
 474   0.0000       0.935340        25.4519 
 475   0.0000       0.937980        25.5237 
 476   0.0000       0.939859        25.5749 
 477   0.0000       0.945768        25.7357 
 478   0.0000       0.948356        25.8061 
 479   0.0000       0.949943        25.8493 
 480   0.0000       0.950505        25.8645 
 481   0.0000       0.951814        25.9002 
 482   0.0000       0.958688        26.0872 
 483   0.0000       0.962784        26.1987 
 484   0.0000       0.965056        26.2605 
 485   0.0000       0.967764        26.3342 
 486   0.0000       0.970583        26.4109 
 487   0.0000       0.970744        26.4153 
 488   0.0000       0.973198        26.4821 
 489   0.0000       0.978802        26.6345 
 490   0.0000       0.982320        26.7303 
 491   0.0000       0.984594        26.7922 
 492   0.0000       0.987683        26.8762 
 493   0.0000       0.989269        26.9194 
 494   0.0000       0.992036        26.9947 
 495   0.0000       0.994619        27.0649 
 496   0.0000       0.995994        27.1024 
 497   0.0000       0.998753        27.1775 
 498   0.0000       1.001675        27.2570 
 499   0.0000       1.003546        27.3079 
 500   0.0000       1.005439        27.3594 
 501   0.0000       1.007217        27.4078 
 502   0.0000       1.009350        27.4658 
 503   0.0000       1.011727        27.5305 
 504   0.0000       1.015081        27.6218 
 505   0.0000       1.016239        27.6533 
 506   0.0000       1.021203        27.7884 
 507   0.0000       1.022929        27.8353 
 508   0.0000       1.023667        27.8554 
 509   0.0000       1.026927        27.9441 
 510   0.0000       1.028554        27.9884 
 511   0.0000       1.033157        28.1136 
 512   0.0000       1.035587        28.1797 
 513   0.0000       1.037433        28.2300 
 514   0.0000       1.038944        28.2711 
 515   0.0000       1.044726        28.4284 
 516   0.0000       1.046553        28.4782 
 517   0.0000       1.047012        28.4907 
 518   0.0000       1.054160        28.6852 
 519   0.0000       1.055285        28.7158 
 520   0.0000       1.059152        28.8210 
 521   0.0000       1.063318        28.9343 
 522   0.0000       1.064034        28.9538 
 523   0.0000       1.066966        29.0336 
 524   0.0000       1.069294        29.0970 
 525   0.0000       1.070144        29.1201 
 526   0.0000       1.073313        29.2063 
 527   0.0000       1.074858        29.2484 
 528   0.0000       1.079987        29.3879 
 529   0.0000       1.080257        29.3953 
 530   0.0000       1.082660        29.4607 
 531   0.0000       1.085731        29.5443 
 532   0.0000       1.090447        29.6726 
 533   0.0000       1.093065        29.7438 
 534   0.0000       1.095173        29.8012 
 535   0.0000       1.096861        29.8471 
 536   0.0000       1.097939        29.8764 
 537   0.0000       1.099626        29.9223 
 538   0.0000       1.104360        30.0512 
 539   0.0000       1.106530        30.1102 
 540   0.0000       1.111145        30.2358 
 541   0.0000       1.112831        30.2817 
 542   0.0000       1.115403        30.3517 
 543   0.0000       1.119670        30.4678 
 544   0.0000       1.120051        30.4781 
 545   0.0000       1.123320        30.5671 
 546   0.0000       1.128187        30.6995 
 547   0.0000       1.129455        30.7340 
 548   0.0000       1.131872        30.7998 
 549   0.0000       1.135702        30.9040 
 550   0.0000       1.138509        30.9804 
 551   0.0000       1.141972        31.0747 
 552   0.0000       1.145873        31.1808 
 553   0.0000       1.150028        31.2939 
 554   0.0000       1.152525        31.3618 
 555   0.0000       1.158733        31.5307 
 556   0.0000       1.159479        31.5510 
 557   0.0000       1.162779        31.6408 
 558   0.0000       1.165261        31.7084 
 559   0.0000       1.171214        31.8703 
 560   0.0000       1.172640        31.9092 
 561   0.0000       1.176500        32.0142 
 562   0.0000       1.180323        32.1182 
 563   0.0000       1.181563        32.1520 
 564   0.0000       1.183042        32.1922 
 565   0.0000       1.186871        32.2964 
 566   0.0000       1.188102        32.3299 
 567   0.0000       1.191077        32.4108 
 568   0.0000       1.194205        32.4960 
 569   0.0000       1.199470        32.6392 
 570   0.0000       1.209233        32.9049 
 571   0.0000       1.210700        32.9448 
 572   0.0000       1.215088        33.0642 
 573   0.0000       1.215384        33.0723 
 574   0.0000       1.221282        33.2328 
 575   0.0000       1.225278        33.3415 
 576   0.0000       1.230566        33.4854 
 577   0.0000       1.235214        33.6119 
 578   0.0000       1.240220        33.7481 
 579   0.0000       1.241332        33.7784 
 580   0.0000       1.246105        33.9082 
 581   0.0000       1.247555        33.9477 
 582   0.0000       1.251161        34.0458 
 583   0.0000       1.253210        34.1016 
 584   0.0000       1.256978        34.2041 
 585   0.0000       1.259119        34.2624 
 586   0.0000       1.266503        34.4633 
 587   0.0000       1.269148        34.5353 
 588   0.0000       1.273556        34.6552 
 589   0.0000       1.279180        34.8082 
 590   0.0000       1.282134        34.8886 
 591   0.0000       1.283608        34.9288 
 592   0.0000       1.288333        35.0573 
 593   0.0000       1.290753        35.1232 
 594   0.0000       1.296750        35.2864 
 595   0.0000       1.302316        35.4378 
 596   0.0000       1.306427        35.5497 
 597   0.0000       1.312230        35.7076 
 598   0.0000       1.315446        35.7951 
 599   0.0000       1.318208        35.8703 
 600   0.0000       1.320065        35.9208 
 601   0.0000       1.323303        36.0089 
 602   0.0000       1.325049        36.0564 
 603   0.0000       1.334862        36.3234 
 604   0.0000       1.336755        36.3750 
 605   0.0000       1.339858        36.4594 
 606   0.0000       1.344014        36.5725 
 607   0.0000       1.347506        36.6675 
 608   0.0000       1.349027        36.7089 
 609   0.0000       1.353805        36.8389 
 610   0.0000       1.355342        36.8807 
 611   0.0000       1.358349        36.9626 
 612   0.0000       1.364280        37.1239 
 613   0.0000       1.366740        37.1909 
 614   0.0000       1.368841        37.2481 
 615   0.0000       1.370581        37.2954 
 616   0.0000       1.377853        37.4933 
 617   0.0000       1.378948        37.5231 
 618   0.0000       1.383518        37.6474 
 619   0.0000       1.385482        37.7009 
[...]
      f+1     :     0.027321
      f-1     :     0.013694
      f+2     :     0.035365
      f-2     :     0.031695
      f+3     :     0.057315
      f-3     :     0.060910
      g0      :     0.002554  g :     0.027665
      g+1     :     0.003581
      g-1     :     0.000820
      g+2     :     0.001902
      g-2     :     0.002723
      g+3     :     0.002894
      g-3     :     0.003277
      g+4     :     0.005079
      g-4     :     0.004834
 47 H s       :     0.773588  s :     0.773588
      pz      :     0.063956  p :     0.199952
      px      :     0.047261
      py      :     0.088735
      dz2     :     0.011099  d :     0.067368
      dxz     :     0.006185
      dyz     :     0.015967
      dx2y2   :     0.015254
      dxy     :     0.018864
      f0      :     0.000541  f :     0.009733
      f+1     :     0.000230
      f-1     :     0.002133
      f+2     :     0.001592
      f-2     :     0.001524
      f+3     :     0.001796
      f-3     :     0.001917
 48 C s       :     2.591579  s :     2.591579
      pz      :     0.810809  p :     2.714615
      px      :     0.991505
      py      :     0.912301
      dz2     :     0.039990  d :     0.520585
      dxz     :     0.120270
      dyz     :     0.053016
      dx2y2   :     0.162495
      dxy     :     0.144814
      f0      :     0.008908  f :     0.112683
      f+1     :     0.014111
      f-1     :     0.004461
      f+2     :     0.014855
      f-2     :     0.014942
      f+3     :     0.028427
      f-3     :     0.026979
      g0      :     0.001010  g :     0.011336
      g+1     :     0.001353
      g-1     :     0.000476
      g+2     :     0.000489
      g-2     :     0.001333
      g+3     :     0.001349
      g-3     :     0.001085
      g+4     :     0.001844
      g-4     :     0.002396
 49 C s       :     2.586347  s :     2.586347
      pz      :     0.848810  p :     2.755749
      px      :     0.974602
      py      :     0.932337
      dz2     :     0.051091  d :     0.487137
      dxz     :     0.086467
      dyz     :     0.063981
      dx2y2   :     0.126370
      dxy     :     0.159228
      f0      :     0.009499  f :     0.111866
      f+1     :     0.007401
      f-1     :     0.011238
      f+2     :     0.018778
      f-2     :     0.012843
      f+3     :     0.024074
      f-3     :     0.028032
      g0      :     0.000977  g :     0.011228
      g+1     :     0.001269
      g-1     :     0.000661
      g+2     :     0.001138
      g-2     :     0.000543
      g+3     :     0.001523
      g-3     :     0.001309
      g+4     :     0.002205
      g-4     :     0.001603
 50 H s       :     0.784475  s :     0.784475
      pz      :     0.063215  p :     0.201958
      px      :     0.071358
      py      :     0.067384
      dz2     :     0.008911  d :     0.066559
      dxz     :     0.011560
      dyz     :     0.010512
      dx2y2   :     0.021730
      dxy     :     0.013846
      f0      :     0.000657  f :     0.009752
      f+1     :     0.001158
      f-1     :     0.000969
      f+2     :     0.000950
      f-2     :     0.001720
      f+3     :     0.002240
      f-3     :     0.002058
 51 H s       :     0.784298  s :     0.784298
      pz      :     0.055871  p :     0.199049
      px      :     0.093995
      py      :     0.049184
      dz2     :     0.005417  d :     0.066553
      dxz     :     0.020809
      dyz     :     0.002123
      dx2y2   :     0.016175
      dxy     :     0.022029
      f0      :     0.001046  f :     0.009658
      f+1     :     0.001204
      f-1     :     0.000235
      f+2     :     0.001505
      f-2     :     0.000614
      f+3     :     0.002462
      f-3     :     0.002592
 52 H s       :     0.792589  s :     0.792589
      pz      :     0.061187  p :     0.189343
      px      :     0.046423
      py      :     0.081732
      dz2     :     0.010663  d :     0.064160
      dxz     :     0.006073
      dyz     :     0.015295
      dx2y2   :     0.014561
      dxy     :     0.017567
      f0      :     0.000518  f :     0.009456
      f+1     :     0.000200
      f-1     :     0.002044
      f+2     :     0.001574
      f-2     :     0.001544
      f+3     :     0.001725
      f-3     :     0.001851
 53 O s       :     3.086288  s :     3.086288
      pz      :     1.517576  p :     4.213497
      px      :     1.230666
      py      :     1.465255
      dz2     :     0.021929  d :     0.183778
      dxz     :     0.040234
      dyz     :     0.012683
      dx2y2   :     0.056884
      dxy     :     0.052048
      f0      :     0.001990  f :     0.027770
      f+1     :     0.003641
      f-1     :     0.001867
      f+2     :     0.002939
      f-2     :     0.004217
      f+3     :     0.007864
      f-3     :     0.005252
      g0      :     0.000095  g :     0.000944
      g+1     :     0.000119
      g-1     :     0.000018
      g+2     :     0.000072
      g-2     :     0.000124
      g+3     :     0.000077
      g-3     :     0.000086
      g+4     :     0.000201
      g-4     :     0.000151
 54 C s       :     2.573828  s :     2.573828
      pz      :     0.956556  p :     2.676583
      px      :     0.822960
      py      :     0.897066
      dz2     :     0.125668  d :     0.524676
      dxz     :     0.065282
      dyz     :     0.086130
      dx2y2   :     0.120630
      dxy     :     0.126966
      f0      :     0.016429  f :     0.147755
      f+1     :     0.018451
      f-1     :     0.011228
      f+2     :     0.017125
      f-2     :     0.029595
      f+3     :     0.030384
      f-3     :     0.024542
      g0      :     0.001342  g :     0.013837
      g+1     :     0.000920
      g-1     :     0.000691
      g+2     :     0.000182
      g-2     :     0.002530
      g+3     :     0.001700
      g-3     :     0.002013
      g+4     :     0.002141
      g-4     :     0.002318
 55 H s       :     0.803867  s :     0.803867
      pz      :     0.095136  p :     0.185994
      px      :     0.041840
      py      :     0.049019
      dz2     :     0.018818  d :     0.064137
      dxz     :     0.019723
      dyz     :     0.023559
      dx2y2   :     0.000436
      dxy     :     0.001600
      f0      :     0.002821  f :     0.008873
      f+1     :     0.002430
      f-1     :     0.003144
      f+2     :     0.000079
      f-2     :     0.000383
      f+3     :     0.000008
      f-3     :     0.000008
 56 H s       :     0.804159  s :     0.804159
      pz      :     0.055318  p :     0.186734
      px      :     0.075662
      py      :     0.055754
      dz2     :     0.008877  d :     0.065059
      dxz     :     0.017075
      dyz     :     0.005315
      dx2y2   :     0.017417
      dxy     :     0.016375
      f0      :     0.000802  f :     0.009165
      f+1     :     0.001630
      f-1     :     0.000618
      f+2     :     0.000732
      f-2     :     0.001251
      f+3     :     0.002448
      f-3     :     0.001683
 57 H s       :     0.803798  s :     0.803798
      pz      :     0.059887  p :     0.185997
      px      :     0.041837
      py      :     0.084272
      dz2     :     0.015074  d :     0.064135
      dxz     :     0.002805
      dyz     :     0.016180
      dx2y2   :     0.011466
      dxy     :     0.018611
      f0      :     0.000645  f :     0.008873
      f+1     :     0.000036
      f-1     :     0.002712
      f+2     :     0.001526
      f-2     :     0.000877
      f+3     :     0.001928
      f-3     :     0.001148
 58 Lis       :     2.108463  s :     2.108463
      pz      :     0.103203  p :     0.504156
      px      :     0.178854
      py      :     0.222099
      dz2     :     0.065069  d :     0.484210
      dxz     :     0.069387
      dyz     :     0.075058
      dx2y2   :     0.137735
      dxy     :     0.136960
      f0      :     0.031331  f :     0.351553
      f+1     :     0.041081
      f-1     :     0.028043
      f+2     :     0.051338
      f-2     :     0.034395
      f+3     :     0.080720
      f-3     :     0.084646


                      *****************************
                      * MAYER POPULATION ANALYSIS *
                      *****************************

  NA   - Mulliken gross atomic population
  ZA   - Total nuclear charge
  QA   - Mulliken gross atomic charge
  VA   - Mayer's total valence
  BVA  - Mayer's bonded valence
  FA   - Mayer's free valence

  ATOM       NA         ZA         QA         VA         BVA        FA
  0 C      5.8882     6.0000     0.1118     3.9529     3.9529     0.0000
  1 C      6.0927     6.0000    -0.0927     3.7806     3.7806    -0.0000
  2 C      6.1979     6.0000    -0.1979     3.9094     3.9094    -0.0000
  3 C      6.1162     6.0000    -0.1162     3.8164     3.8164    -0.0000
  4 C      5.9350     6.0000     0.0650     3.6860     3.6860    -0.0000
  5 C      6.0647     6.0000    -0.0647     3.7156     3.7156    -0.0000
  6 H      0.8838     1.0000     0.1162     1.0147     1.0147    -0.0000
  7 H      0.8797     1.0000     0.1203     0.9978     0.9978     0.0000
  8 H      0.8681     1.0000     0.1319     0.9805     0.9805    -0.0000
  9 H      0.8858     1.0000     0.1142     0.9990     0.9990     0.0000
 10 C      5.8283     6.0000     0.1717     3.9348     3.9348     0.0000
 11 C      6.0307     6.0000    -0.0307     3.7140     3.7140     0.0000
 12 O      8.4023     8.0000    -0.4023     2.0546     2.0546    -0.0000
 13 C      5.9817     6.0000     0.0183     3.8896     3.8896     0.0000
 14 H      0.8674     1.0000     0.1326     0.9796     0.9796     0.0000
 15 H      0.9179     1.0000     0.0821     0.9920     0.9920     0.0000
 16 C      6.2424     6.0000    -0.2424     3.6030     3.6030    -0.0000
 17 C      5.8185     6.0000     0.1815     3.8946     3.8946     0.0000
 18 H      0.9462     1.0000     0.0538     1.0133     1.0133    -0.0000
 19 C      6.1079     6.0000    -0.1079     3.8014     3.8014    -0.0000
 20 C      6.0934     6.0000    -0.0934     3.7809     3.7809    -0.0000
 21 O      8.3693     8.0000    -0.3693     2.0819     2.0819    -0.0000
 22 C      6.0801     6.0000    -0.0801     3.8144     3.8144     0.0000
 23 H      0.8906     1.0000     0.1094     0.9841     0.9841     0.0000
 24 H      0.8681     1.0000     0.1319     0.9807     0.9807     0.0000
 25 H      0.8910     1.0000     0.1090     0.9841     0.9841    -0.0000
 26 C      5.9614     6.0000     0.0386     3.6990     3.6990     0.0000
 27 C      6.1369     6.0000    -0.1369     3.8393     3.8393     0.0000
 28 C      6.1142     6.0000    -0.1142     3.8343     3.8343     0.0000
 29 H      0.9150     1.0000     0.0850     1.0294     1.0294     0.0000
 30 H      0.8721     1.0000     0.1279     1.0006     1.0006     0.0000
 31 H      0.8968     1.0000     0.1032     1.0124     1.0124     0.0000
 32 H      0.8730     1.0000     0.1270     0.9984     0.9984     0.0000
 33 C      5.6677     6.0000     0.3323     4.1912     4.1912     0.0000
 34 O      8.3505     8.0000    -0.3505     2.1536     2.1536     0.0000
 35 O      8.4214     8.0000    -0.4214     2.1124     2.1124    -0.0000
 36 C      6.0847     6.0000    -0.0847     3.7956     3.7956     0.0000
 37 H      0.8721     1.0000     0.1279     0.9851     0.9851    -0.0000
 38 H      0.8750     1.0000     0.1250     0.9841     0.9841    -0.0000
 39 H      0.8731     1.0000     0.1269     0.9848     0.9848     0.0000
 40 C      5.8958     6.0000     0.1042     3.8279     3.8279    -0.0000
 41 C      5.8886     6.0000     0.1114     3.6443     3.6443     0.0000
 42 O      8.4701     8.0000    -0.4701     2.1490     2.1490     0.0000
 43 H      0.9454     1.0000     0.0546     1.0342     1.0342    -0.0000
 44 C      6.1605     6.0000    -0.1605     3.8189     3.8189    -0.0000
 45 C      6.0922     6.0000    -0.0922     3.6851     3.6851    -0.0000
 46 C      5.8906     6.0000     0.1094     3.9412     3.9412     0.0000
 47 H      0.8962     1.0000     0.1038     1.0188     1.0188     0.0000
 48 C      6.1953     6.0000    -0.1953     3.9071     3.9071    -0.0000
 49 C      6.1316     6.0000    -0.1316     3.7850     3.7850     0.0000
 50 H      0.8879     1.0000     0.1121     1.0010     1.0010     0.0000
 51 H      0.8951     1.0000     0.1049     1.0015     1.0015     0.0000
 52 H      0.8773     1.0000     0.1227     0.9818     0.9818     0.0000
 53 O      8.3797     8.0000    -0.3797     2.0646     2.0646    -0.0000
 54 C      6.0817     6.0000    -0.0817     3.8222     3.8222     0.0000
 55 H      0.8936     1.0000     0.1064     0.9853     0.9853    -0.0000
 56 H      0.8721     1.0000     0.1279     0.9807     0.9807     0.0000
 57 H      0.8930     1.0000     0.1070     0.9854     0.9854     0.0000
 58 Li     2.5914     3.0000     0.4086     1.1285     1.1285    -0.0000

  Mayer bond orders larger than 0.100000
B(  0-C ,  1-C ) :   1.3258 B(  0-C ,  5-C ) :   1.3355 B(  0-C , 21-O ) :   1.1329 
B(  1-C ,  2-C ) :   1.3598 B(  1-C ,  7-H ) :   0.9516 B(  2-C ,  3-C ) :   1.4172 
B(  2-C ,  8-H ) :   0.9499 B(  3-C ,  4-C ) :   1.2844 B(  3-C ,  9-H ) :   0.9531 
B(  4-C ,  5-C ) :   1.3066 B(  4-C , 10-C ) :   1.0246 B(  5-C ,  6-H ) :   0.9387 
B( 10-C , 11-C ) :   0.9848 B( 10-C , 12-O ) :   1.8756 B( 11-C , 13-C ) :   0.9131 
B( 11-C , 14-H ) :   0.9108 B( 11-C , 15-H ) :   0.9209 B( 13-C , 16-C ) :   0.9177 
B( 13-C , 17-C ) :   1.0171 B( 13-C , 18-H ) :   0.9435 B( 16-C , 40-C ) :   1.5304 
B( 16-C , 43-H ) :   0.9735 B( 17-C , 19-C ) :   1.3351 B( 17-C , 28-C ) :   1.2316 
B( 19-C , 20-C ) :   1.3791 B( 19-C , 31-H ) :   0.9443 B( 20-C , 26-C ) :   1.2758 
B( 20-C , 32-H ) :   0.9465 B( 21-O , 22-C ) :   0.8986 B( 22-C , 23-H ) :   0.9609 
B( 22-C , 24-H ) :   0.9676 B( 22-C , 25-H ) :   0.9605 B( 26-C , 27-C ) :   1.2960 
B( 26-C , 33-C ) :   1.0421 B( 27-C , 28-C ) :   1.3739 B( 27-C , 30-H ) :   0.9534 
B( 28-C , 29-H ) :   0.9654 B( 28-C , 58-Li) :   0.1040 B( 33-C , 34-O ) :   1.2068 
B( 33-C , 35-O ) :   1.9106 B( 34-O , 36-C ) :   0.8491 B( 36-C , 37-H ) :   0.9626 
B( 36-C , 38-H ) :   0.9631 B( 36-C , 39-H ) :   0.9619 B( 40-C , 41-C ) :   0.9885 
B( 40-C , 42-O ) :   1.2588 B( 41-C , 44-C ) :   1.2589 B( 41-C , 45-C ) :   1.3151 
B( 42-O , 58-Li) :   0.7413 B( 44-C , 48-C ) :   1.4481 B( 44-C , 51-H ) :   0.9581 
B( 45-C , 46-C ) :   1.3179 B( 45-C , 47-H ) :   0.9477 B( 46-C , 49-C ) :   1.3524 
B( 46-C , 53-O ) :   1.1280 B( 48-C , 49-C ) :   1.3409 B( 48-C , 52-H ) :   0.9519 
B( 49-C , 50-H ) :   0.9561 B( 53-O , 54-C ) :   0.9069 B( 54-C , 55-H ) :   0.9613 
B( 54-C , 56-H ) :   0.9685 B( 54-C , 57-H ) :   0.9618 

-------
TIMINGS
-------

Total SCF time: 0 days 2 hours 24 min 34 sec 

Total time                  ....    8674.200 sec
Sum of individual times     ....    8625.062 sec  ( 99.4%)

Fock matrix formation       ....    8409.522 sec  ( 96.9%)
  XC integration            ....     475.102 sec  (  5.6% of F)
    Basis function eval.    ....      30.821 sec  (  6.5% of XC)
    Density eval.           ....     220.353 sec  ( 46.4% of XC)
    XC-Functional eval.     ....       3.974 sec  (  0.8% of XC)
    XC-Potential eval.      ....     189.461 sec  ( 39.9% of XC)
Diagonalization             ....      66.234 sec  (  0.8%)
Density matrix formation    ....       4.289 sec  (  0.0%)
Population analysis         ....      16.600 sec  (  0.2%)
Initial guess               ....      23.789 sec  (  0.3%)
Orbital Transformation      ....       0.000 sec  (  0.0%)
Orbital Orthonormalization  ....       0.000 sec  (  0.0%)
DIIS solution               ....      37.097 sec  (  0.4%)
SOSCF solution              ....      48.620 sec  (  0.6%)
Grid generation             ....      18.910 sec  (  0.2%)

Maximum memory used throughout the entire SCF-calculation: 1644.2 MB


-------------------------------------------------------------------------------
                          DFT DISPERSION CORRECTION                            
                                                                               
                              DFTD3 V3.1  Rev 1                                
                          USING Becke-Johnson damping                          
-------------------------------------------------------------------------------
The PW6B95 functional is recognized
Active option DFTDOPT                   ...         4   

molecular C6(AA) [au] = 40398.284613 


            DFT-D V3
 parameters
 s6 scaling factor         :     1.0000 
 a1 scaling factor         :     0.2076 
 s8 scaling factor         :     0.7257 
 a2 scaling factor         :     6.3750 
 ad hoc parameters k1-k3   :    16.0000     1.3333    -4.0000 

 Edisp/kcal,au: -26.102406582119  -0.041596828218 
 E6   /kcal   : -19.737705848 
 E8   /kcal   :  -6.364700734 
 % E8         :  24.383578250 

-------------------------   ----------------
Dispersion correction           -0.041596828
-------------------------   ----------------


-------------------------   --------------------
FINAL SINGLE POINT ENERGY     -1505.458533761301
-------------------------   --------------------


                            ***************************************
                            *     ORCA property calculations      *
                            ***************************************

                                    ---------------------
                                    Active property flags
                                    ---------------------
   (+) Dipole Moment


------------------------------------------------------------------------------
                       ORCA ELECTRIC PROPERTIES CALCULATION
------------------------------------------------------------------------------

Dipole Moment Calculation                       ... on
Quadrupole Moment Calculation                   ... off
Polarizability Calculation                      ... off
GBWName                                         ... Diketon-Li_sp.gbw
Electron density                                ... Diketon-Li_sp.scfp
The origin for moment calculation is the CENTER OF MASS  = ( 6.386778,  6.610197  0.754159)

-------------
DIPOLE MOMENT
-------------
                                X             Y             Z
Electronic contribution:      4.98782      10.50532      -4.41792
Nuclear contribution   :     -6.75039      -9.64236       5.11411
                        -----------------------------------------
Total Dipole Moment    :     -1.76258       0.86296       0.69618
                        -----------------------------------------
Magnitude (a.u.)       :      2.08232
Magnitude (Debye)      :      5.29283



--------------------
Rotational spectrum 
--------------------
 
Rotational constants in cm-1:     0.004361     0.001931     0.001425 
Rotational constants in MHz :   130.730714    57.891769    42.723043 

 Dipole components along the rotational axes: 
x,y,z [a.u.] :    -1.806082    -0.593486     0.849643 
x,y,z [Debye]:    -4.590697    -1.508521     2.159621 

 

Timings for individual modules:

Sum of individual times         ...     8696.487 sec (= 144.941 min)
GTO integral calculation        ...       21.414 sec (=   0.357 min)   0.2 %
SCF iterations                  ...     8675.073 sec (= 144.585 min)  99.8 %
                             ****ORCA TERMINATED NORMALLY****
TOTAL RUN TIME: 0 days 2 hours 25 minutes 6 seconds 857 msec
‘Diketon-Li.hess’ -> ‘/home/rothe/Calc/Li_Path/THF/Diketon-Li/Diketon-Li.hess’
‘Diketon-Li.opt’ -> ‘/home/rothe/Calc/Li_Path/THF/Diketon-Li/Diketon-Li.opt’
‘Diketon-Li_sp.cpcm’ -> ‘/home/rothe/Calc/Li_Path/THF/Diketon-Li/Diketon-Li_sp.cpcm’
‘Diketon-Li_sp.densities’ -> ‘/home/rothe/Calc/Li_Path/THF/Diketon-Li/Diketon-Li_sp.densities’
‘Diketon-Li_sp.gbw’ -> ‘/home/rothe/Calc/Li_Path/THF/Diketon-Li/Diketon-Li_sp.gbw’
‘Diketon-Li_sp.job’ -> ‘/home/rothe/Calc/Li_Path/THF/Diketon-Li/Diketon-Li_sp.job’
‘Diketon-Li_sp_property.txt’ -> ‘/home/rothe/Calc/Li_Path/THF/Diketon-Li/Diketon-Li_sp_property.txt’
