! Job execution by suborca V 5.02 !
Job started from clu.thch.uni-bonn.de, running /software/cluster/orca_5_0_2_linux_x86-64_openmpi411/orca from /software/cluster/orca_5_0_2_linux_x86-64_openmpi411 on boar229 in /tmp1/rothe/DiPA_freqopt__9gEfkM
Going to copy the following really necessary files:  

                                 *****************
                                 * O   R   C   A *
                                 *****************

                                            #,                                       
                                            ###                                      
                                            ####                                     
                                            #####                                    
                                            ######                                   
                                           ########,                                 
                                     ,,################,,,,,                         
                               ,,#################################,,                 
                          ,,##########################################,,             
                       ,#########################################, ''#####,          
                    ,#############################################,,   '####,        
                  ,##################################################,,,,####,       
                ,###########''''           ''''###############################       
              ,#####''   ,,,,##########,,,,          '''####'''          '####       
            ,##' ,,,,###########################,,,                        '##       
           ' ,,###''''                  '''############,,,                           
         ,,##''                                '''############,,,,        ,,,,,,###''
      ,#''                                            '''#######################'''  
     '                                                          ''''####''''         
             ,#######,   #######,   ,#######,      ##                                
            ,#'     '#,  ##    ##  ,#'     '#,    #''#        ######   ,####,        
            ##       ##  ##   ,#'  ##            #'  '#       #        #'  '#        
            ##       ##  #######   ##           ,######,      #####,   #    #        
            '#,     ,#'  ##    ##  '#,     ,#' ,#      #,         ##   #,  ,#        
             '#######'   ##     ##  '#######'  #'      '#     #####' # '####'        



                  #######################################################
                  #                        -***-                        #
                  #          Department of theory and spectroscopy      #
                  #    Directorship and core code : Frank Neese         #
                  #        Max Planck Institute fuer Kohlenforschung    #
                  #                Kaiser Wilhelm Platz 1               #
                  #                 D-45470 Muelheim/Ruhr               #
                  #                      Germany                        #
                  #                                                     #
                  #                  All rights reserved                #
                  #                        -***-                        #
                  #######################################################


                         Program Version 5.0.2 -  RELEASE  -


 With contributions from (in alphabetic order):
   Daniel Aravena         : Magnetic Suceptibility
   Michael Atanasov       : Ab Initio Ligand Field Theory (pilot matlab implementation)
   Alexander A. Auer      : GIAO ZORA, VPT2 properties, NMR spectrum
   Ute Becker             : Parallelization
   Giovanni Bistoni       : ED, misc. LED, open-shell LED, HFLD
   Martin Brehm           : Molecular dynamics
   Dmytro Bykov           : SCF Hessian
   Vijay G. Chilkuri      : MRCI spin determinant printing, contributions to CSF-ICE
   Dipayan Datta          : RHF DLPNO-CCSD density
   Achintya Kumar Dutta   : EOM-CC, STEOM-CC
   Dmitry Ganyushin       : Spin-Orbit,Spin-Spin,Magnetic field MRCI
   Miquel Garcia          : C-PCM and meta-GGA Hessian, CC/C-PCM, Gaussian charge scheme
   Yang Guo               : DLPNO-NEVPT2, F12-NEVPT2, CIM, IAO-localization
   Andreas Hansen         : Spin unrestricted coupled pair/coupled cluster methods
   Benjamin Helmich-Paris : MC-RPA, TRAH-SCF, COSX integrals
   Lee Huntington         : MR-EOM, pCC
   Robert Izsak           : Overlap fitted RIJCOSX, COSX-SCS-MP3, EOM
   Marcus Kettner         : VPT2
   Christian Kollmar      : KDIIS, OOCD, Brueckner-CCSD(T), CCSD density, CASPT2, CASPT2-K
   Simone Kossmann        : Meta GGA functionals, TD-DFT gradient, OOMP2, MP2 Hessian
   Martin Krupicka        : Initial AUTO-CI
   Lucas Lang             : DCDCAS
   Marvin Lechner         : AUTO-CI (C++ implementation), FIC-MRCC
   Dagmar Lenk            : GEPOL surface, SMD
   Dimitrios Liakos       : Extrapolation schemes; Compound Job, initial MDCI parallelization
   Dimitrios Manganas     : Further ROCIS development; embedding schemes
   Dimitrios Pantazis     : SARC Basis sets
   Anastasios Papadopoulos: AUTO-CI, single reference methods and gradients
   Taras Petrenko         : DFT Hessian,TD-DFT gradient, ASA, ECA, R-Raman, ABS, FL, XAS/XES, NRVS
   Peter Pinski           : DLPNO-MP2, DLPNO-MP2 Gradient
   Christoph Reimann      : Effective Core Potentials
   Marius Retegan         : Local ZFS, SOC
   Christoph Riplinger    : Optimizer, TS searches, QM/MM, DLPNO-CCSD(T), (RO)-DLPNO pert. Triples
   Tobias Risthaus        : Range-separated hybrids, TD-DFT gradient, RPA, STAB
   Michael Roemelt        : Original ROCIS implementation
   Masaaki Saitow         : Open-shell DLPNO-CCSD energy and density
   Barbara Sandhoefer     : DKH picture change effects
   Avijit Sen             : IP-ROCIS
   Kantharuban Sivalingam : CASSCF convergence, NEVPT2, FIC-MRCI
   Bernardo de Souza      : ESD, SOC TD-DFT
   Georgi Stoychev        : AutoAux, RI-MP2 NMR, DLPNO-MP2 response
   Willem Van den Heuvel  : Paramagnetic NMR
   Boris Wezisla          : Elementary symmetry handling
   Frank Wennmohs         : Technical directorship


 We gratefully acknowledge several colleagues who have allowed us to
 interface, adapt or use parts of their codes:
   Stefan Grimme, W. Hujo, H. Kruse, P. Pracht,  : VdW corrections, initial TS optimization,
                  C. Bannwarth, S. Ehlert          DFT functionals, gCP, sTDA/sTD-DF
   Ed Valeev, F. Pavosevic, A. Kumar             : LibInt (2-el integral package), F12 methods
   Garnet Chan, S. Sharma, J. Yang, R. Olivares  : DMRG
   Ulf Ekstrom                                   : XCFun DFT Library
   Mihaly Kallay                                 : mrcc  (arbitrary order and MRCC methods)
   Jiri Pittner, Ondrej Demel                    : Mk-CCSD
   Frank Weinhold                                : gennbo (NPA and NBO analysis)
   Christopher J. Cramer and Donald G. Truhlar   : smd solvation model
   Lars Goerigk                                  : TD-DFT with DH, B97 family of functionals
   V. Asgeirsson, H. Jonsson                     : NEB implementation
   FAccTs GmbH                                   : IRC, NEB, NEB-TS, DLPNO-Multilevel, CI-OPT
                                                   MM, QMMM, 2- and 3-layer-ONIOM, Crystal-QMMM,
                                                   LR-CPCM, SF, NACMEs, symmetry and pop. for TD-DFT,
                                                   nearIR, NL-DFT gradient (VV10), updates on ESD,
                                                   ML-optimized integration grids
   S Lehtola, MJT Oliveira, MAL Marques          : LibXC Library
   Liviu Ungur et al                             : ANISO software


 Your calculation uses the libint2 library for the computation of 2-el integrals
 For citations please refer to: http://libint.valeyev.net

 Your ORCA version has been built with support for libXC version: 5.1.0
 For citations please refer to: https://tddft.org/programs/libxc/

 This ORCA versions uses:
   CBLAS   interface :  Fast vector & matrix operations
   LAPACKE interface :  Fast linear algebra routines
   SCALAPACK package :  Parallel linear algebra routines
   Shared memory     :  Shared parallel matrices
   BLAS/LAPACK       :  OpenBLAS 0.3.15  USE64BITINT DYNAMIC_ARCH NO_AFFINITY Barcelona SINGLE_THREADED
        Core in use  :  Barcelona
   Copyright (c) 2011-2014, The OpenBLAS Project


Your calculation utilizes the atom-pairwise dispersion correction
with the Becke-Johnson damping scheme (D3BJ)
Cite in your paper:
S.Grimme, S.Ehrlich, L.Goerigk, J Comput Chem, (2011), 32, 1456–1465 
S.Grimme, J.Antony, S.Ehrlich and H.Krieg, J.Chem.Phys., 132, (2010), 154104 
   

================================================================================

----- Orbital basis set information -----
Your calculation utilizes the basis: def2-TZVP
   F. Weigend and R. Ahlrichs, Phys. Chem. Chem. Phys. 7, 3297 (2005).

----- AuxJ basis set information -----
Your calculation utilizes the auxiliary basis: def2/J
   F. Weigend, Phys. Chem. Chem. Phys. 8, 1057 (2006).

================================================================================
                                        WARNINGS
                       Please study these warnings very carefully!
================================================================================


WARNING: Geometry Optimization
  ===> : Switching off AutoStart
         For restart on a previous wavefunction, please use MOREAD

INFO   : the flag for use of the SHARK integral package has been found!

================================================================================
                                       INPUT FILE
================================================================================
NAME = DiPA_freqopt.inp
|  1> ! TPSS D3BJ def2-TZVP RI def2/J CPCM(THF)
|  2> ! Opt numfreq Pal4
|  3> 
|  4> * xyz 0 1
|  5> N        -3.58344417612903   -1.94365772281645   -0.87472842583596
|  6> C        -2.19198541082266   -2.36439824826760   -0.83348748322500
|  7> C        -4.29137145135694   -1.90318977570130    0.39900998479212
|  8> H        -4.08612282763850   -2.51964640174613   -1.54171858668130
|  9> C        -1.49030388531024   -1.84615873261574   -2.08951920949160
| 10> C        -2.01930999653330   -3.88584813993939   -0.71631541342218
| 11> H        -1.73469018795790   -1.89014258151727    0.04280256923498
| 12> C        -4.05977917017557   -0.53951769390989    1.05607561415844
| 13> H        -3.92558047169161   -2.68668956494319    1.08969812730884
| 14> C        -5.78327002415554   -2.12849740937742    0.16635184035320
| 15> H        -1.91916417080276   -2.30659864891972   -2.97677978822599
| 16> H        -0.42878910057077   -2.07784774993851   -2.05402106601857
| 17> H        -1.61645081497968   -0.76999895868655   -2.16525471128215
| 18> H        -2.42898164847436   -4.37815606856237   -1.59723707741625
| 19> H        -2.53467720540082   -4.26719215618859    0.16353625759345
| 20> H        -0.96646835070436   -4.14364276486168   -0.63321048625818
| 21> H        -2.99839771052668   -0.36469060945895    1.21156524947049
| 22> H        -4.56373177196934   -0.49206598467346    2.01832158256939
| 23> H        -4.44526839031720    0.24557163610310    0.41126926312305
| 24> H        -6.16518366815328   -1.38327225712887   -0.52723784726324
| 25> H        -6.32741737389968   -2.04600263746027    1.10383238846133
| 26> H        -5.96349282333049   -3.11859334519011   -0.24905049994512
| 27> *
| 28> 
| 29>                          ****END OF INPUT****
================================================================================

                       *****************************
                       * Geometry Optimization Run *
                       *****************************

Geometry optimization settings:
Update method            Update   .... BFGS
Choice of coordinates    CoordSys .... Z-matrix Internals
Initial Hessian          InHess   .... Almoef's Model

Convergence Tolerances:
Energy Change            TolE     ....  5.0000e-06 Eh
Max. Gradient            TolMAXG  ....  3.0000e-04 Eh/bohr
RMS Gradient             TolRMSG  ....  1.0000e-04 Eh/bohr
Max. Displacement        TolMAXD  ....  4.0000e-03 bohr
RMS Displacement         TolRMSD  ....  2.0000e-03 bohr
Strict Convergence                ....  False
------------------------------------------------------------------------------
                        ORCA OPTIMIZATION COORDINATE SETUP
------------------------------------------------------------------------------

The optimization will be done in new redundant internal coordinates
Making redundant internal coordinates   ...  (new redundants) done
Evaluating the initial hessian          ...  (Almloef) done
Evaluating the coordinates              ...  done
Calculating the B-matrix                .... done
Calculating the G-matrix                .... done
Diagonalizing the G-matrix              .... done
Small eigenvalue found = 2.130e-02
The first mode is                       ....   48
The number of degrees of freedom        ....   60

    -----------------------------------------------------------------
                    Redundant Internal Coordinates


    -----------------------------------------------------------------
         Definition                    Initial Value    Approx d2E/dq
    -----------------------------------------------------------------
      1. B(C   1,N   0)                  1.4543         0.441924   
      2. B(C   2,N   0)                  1.4578         0.436204   
      3. B(H   3,N   0)                  1.0146         0.425525   
      4. B(C   4,C   1)                  1.5292         0.374633   
      5. B(C   5,C   1)                  1.5357         0.365842   
      6. B(H   6,C   1)                  1.0963         0.351833   
      7. B(C   7,C   2)                  1.5313         0.371754   
      8. B(H   8,C   2)                  1.1067         0.338706   
      9. B(C   9,C   2)                  1.5266         0.378203   
     10. B(H  10,C   4)                  1.0877         0.363115   
     11. B(H  11,C   4)                  1.0871         0.363977   
     12. B(H  12,C   4)                  1.0862         0.365200   
     13. B(H  13,C   5)                  1.0891         0.361243   
     14. B(H  14,C   5)                  1.0887         0.361886   
     15. B(H  15,C   5)                  1.0871         0.363924   
     16. B(H  16,C   7)                  1.0869         0.364273   
     17. B(H  17,C   7)                  1.0873         0.363741   
     18. B(H  18,C   7)                  1.0866         0.364600   
     19. B(H  19,C   9)                  1.0873         0.363650   
     20. B(H  20,C   9)                  1.0871         0.363966   
     21. B(H  21,C   9)                  1.0887         0.361786   
     22. A(C   2,N   0,H   3)          110.4608         0.337098   
     23. A(C   1,N   0,C   2)          116.6085         0.379323   
     24. A(C   1,N   0,H   3)          109.1754         0.337830   
     25. A(N   0,C   1,C   5)          113.3521         0.370306   
     26. A(N   0,C   1,H   6)          107.2545         0.330158   
     27. A(N   0,C   1,C   4)          108.5234         0.371822   
     28. A(C   4,C   1,H   6)          108.5730         0.323235   
     29. A(C   5,C   1,H   6)          108.7046         0.321979   
     30. A(C   4,C   1,C   5)          110.2930         0.362230   
     31. A(C   7,C   2,C   9)          110.1580         0.363813   
     32. A(C   7,C   2,H   8)          108.2209         0.320823   
     33. A(N   0,C   2,H   8)          111.4165         0.327387   
     34. A(N   0,C   2,C   9)          109.7127         0.371595   
     35. A(H   8,C   2,C   9)          108.2785         0.321727   
     36. A(N   0,C   2,C   7)          109.0372         0.370497   
     37. A(H  11,C   4,H  12)          109.0776         0.291974   
     38. A(H  10,C   4,H  12)          108.4656         0.291865   
     39. A(C   1,C   4,H  12)          109.8614         0.325220   
     40. A(H  10,C   4,H  11)          108.7485         0.291711   
     41. A(C   1,C   4,H  11)          110.4265         0.325041   
     42. A(C   1,C   4,H  10)          110.2191         0.324914   
     43. A(H  13,C   5,H  15)          108.5978         0.291468   
     44. A(C   1,C   5,H  15)          110.4667         0.323768   
     45. A(H  13,C   5,H  14)          108.4992         0.291211   
     46. A(C   1,C   5,H  14)          110.8226         0.323470   
     47. A(H  14,C   5,H  15)          108.2776         0.291549   
     48. A(C   1,C   5,H  13)          110.1096         0.323375   
     49. A(C   2,C   7,H  18)          109.5805         0.324720   
     50. A(H  16,C   7,H  17)          108.6028         0.291828   
     51. A(C   2,C   7,H  17)          110.3963         0.324595   
     52. A(C   2,C   7,H  16)          110.6292         0.324673   
     53. A(H  17,C   7,H  18)          109.2208         0.291869   
     54. A(H  16,C   7,H  18)          108.3680         0.291936   
     55. A(H  19,C   9,H  21)          108.7691         0.291502   
     56. A(C   2,C   9,H  21)          110.7400         0.325225   
     57. A(H  19,C   9,H  20)          108.8003         0.291778   
     58. A(C   2,C   9,H  20)          110.2756         0.325547   
     59. A(H  20,C   9,H  21)          108.3722         0.291542   
     60. A(C   2,C   9,H  19)          109.8347         0.325500   
     61. D(H   6,C   1,N   0,C   2)    -41.3800         0.016654   
     62. D(C   4,C   1,N   0,H   3)     75.4771         0.016654   
     63. D(C   5,C   1,N   0,C   2)     78.6107         0.016654   
     64. D(C   4,C   1,N   0,C   2)   -158.4970         0.016654   
     65. D(H   6,C   1,N   0,H   3)   -167.4059         0.016654   
     66. D(C   5,C   1,N   0,H   3)    -47.4151         0.016654   
     67. D(C   9,C   2,N   0,H   3)    -26.9708         0.016223   
     68. D(C   7,C   2,N   0,C   1)     86.9257         0.016223   
     69. D(H   8,C   2,N   0,H   3)     92.9240         0.016223   
     70. D(C   9,C   2,N   0,C   1)   -152.3521         0.016223   
     71. D(C   7,C   2,N   0,H   3)   -147.6930         0.016223   
     72. D(H   8,C   2,N   0,C   1)    -32.4573         0.016223   
     73. D(H  10,C   4,C   1,N   0)    -64.1676         0.011203   
     74. D(H  10,C   4,C   1,C   5)     60.5543         0.011203   
     75. D(H  12,C   4,C   1,C   5)   -179.9784         0.011203   
     76. D(H  10,C   4,C   1,H   6)    179.5631         0.011203   
     77. D(H  11,C   4,C   1,H   6)     59.3862         0.011203   
     78. D(H  11,C   4,C   1,C   5)    -59.6226         0.011203   
     79. D(H  11,C   4,C   1,N   0)    175.6555         0.011203   
     80. D(H  12,C   4,C   1,H   6)    -60.9697         0.011203   
     81. D(H  12,C   4,C   1,N   0)     55.2997         0.011203   
     82. D(H  15,C   5,C   1,H   6)    -57.6667         0.010714   
     83. D(H  15,C   5,C   1,C   4)     61.2619         0.010714   
     84. D(H  15,C   5,C   1,N   0)   -176.8282         0.010714   
     85. D(H  14,C   5,C   1,H   6)     62.3391         0.010714   
     86. D(H  14,C   5,C   1,C   4)   -178.7323         0.010714   
     87. D(H  14,C   5,C   1,N   0)    -56.8224         0.010714   
     88. D(H  13,C   5,C   1,H   6)   -177.6113         0.010714   
     89. D(H  13,C   5,C   1,C   4)    -58.6827         0.010714   
     90. D(H  13,C   5,C   1,N   0)     63.2272         0.010714   
     91. D(H  16,C   7,C   2,N   0)    -58.6950         0.011042   
     92. D(H  18,C   7,C   2,H   8)   -177.9212         0.011042   
     93. D(H  18,C   7,C   2,N   0)     60.7297         0.011042   
     94. D(H  17,C   7,C   2,C   9)     60.6150         0.011042   
     95. D(H  17,C   7,C   2,H   8)    -57.5870         0.011042   
     96. D(H  17,C   7,C   2,N   0)   -178.9360         0.011042   
     97. D(H  16,C   7,C   2,C   9)   -179.1440         0.011042   
     98. D(H  18,C   7,C   2,C   9)    -59.7192         0.011042   
     99. D(H  16,C   7,C   2,H   8)     62.6540         0.011042   
    100. D(H  21,C   9,C   2,H   8)    -58.6453         0.011406   
    101. D(H  21,C   9,C   2,N   0)     63.1467         0.011406   
    102. D(H  20,C   9,C   2,H   8)     61.3006         0.011406   
    103. D(H  20,C   9,C   2,C   7)    -56.8659         0.011406   
    104. D(H  20,C   9,C   2,N   0)   -176.9075         0.011406   
    105. D(H  19,C   9,C   2,H   8)   -178.8000         0.011406   
    106. D(H  21,C   9,C   2,C   7)   -176.8118         0.011406   
    107. D(H  19,C   9,C   2,C   7)     63.0335         0.011406   
    108. D(H  19,C   9,C   2,N   0)    -57.0080         0.011406   
    -----------------------------------------------------------------

Number of atoms                         .... 22
Number of degrees of freedom            .... 108

         *************************************************************
         *                GEOMETRY OPTIMIZATION CYCLE   1            *
         *************************************************************
---------------------------------
CARTESIAN COORDINATES (ANGSTROEM)
---------------------------------
  N     -3.583444   -1.943658   -0.874728
  C     -2.191985   -2.364398   -0.833487
  C     -4.291371   -1.903190    0.399010
  H     -4.086123   -2.519646   -1.541719
  C     -1.490304   -1.846159   -2.089519
  C     -2.019310   -3.885848   -0.716315
  H     -1.734690   -1.890143    0.042803
  C     -4.059779   -0.539518    1.056076
  H     -3.925580   -2.686690    1.089698
  C     -5.783270   -2.128497    0.166352
  H     -1.919164   -2.306599   -2.976780
  H     -0.428789   -2.077848   -2.054021
  H     -1.616451   -0.769999   -2.165255
  H     -2.428982   -4.378156   -1.597237
  H     -2.534677   -4.267192    0.163536
  H     -0.966468   -4.143643   -0.633210
  H     -2.998398   -0.364691    1.211565
  H     -4.563732   -0.492066    2.018322
  H     -4.445268    0.245572    0.411269
  H     -6.165184   -1.383272   -0.527238
  H     -6.327417   -2.046003    1.103832
  H     -5.963493   -3.118593   -0.249050

----------------------------
CARTESIAN COORDINATES (A.U.)
----------------------------
  NO LB      ZA    FRAG     MASS         X           Y           Z
   0 N     7.0000    0    14.007   -6.771728   -3.672981   -1.652997
   1 C     6.0000    0    12.011   -4.142252   -4.468065   -1.575063
   2 C     6.0000    0    12.011   -8.109517   -3.596507    0.754020
   3 H     1.0000    0     1.008   -7.721653   -4.761442   -2.913426
   4 C     6.0000    0    12.011   -2.816266   -3.488734   -3.948619
   5 C     6.0000    0    12.011   -3.815943   -7.343189   -1.353640
   6 H     1.0000    0     1.008   -3.278089   -3.571852    0.080885
   7 C     6.0000    0    12.011   -7.671871   -1.019541    1.995694
   8 H     1.0000    0     1.008   -7.418272   -5.077107    2.059231
   9 C     6.0000    0    12.011  -10.928797   -4.022277    0.314359
  10 H     1.0000    0     1.008   -3.626695   -4.358840   -5.625299
  11 H     1.0000    0     1.008   -0.810294   -3.926563   -3.881537
  12 H     1.0000    0     1.008   -3.054649   -1.455087   -4.091738
  13 H     1.0000    0     1.008   -4.590110   -8.273516   -3.018341
  14 H     1.0000    0     1.008   -4.789846   -8.063825    0.309039
  15 H     1.0000    0     1.008   -1.826360   -7.830350   -1.196594
  16 H     1.0000    0     1.008   -5.666151   -0.689165    2.289527
  17 H     1.0000    0     1.008   -8.624203   -0.929870    3.814075
  18 H     1.0000    0     1.008   -8.400340    0.464063    0.777186
  19 H     1.0000    0     1.008  -11.650509   -2.614006   -0.996335
  20 H     1.0000    0     1.008  -11.957086   -3.866385    2.085941
  21 H     1.0000    0     1.008  -11.269368   -5.893287   -0.470637

--------------------------------
INTERNAL COORDINATES (ANGSTROEM)
--------------------------------
 N      0   0   0     0.000000000000     0.00000000     0.00000000
 C      1   0   0     1.454263009449     0.00000000     0.00000000
 C      1   2   0     1.457809390992   116.60850993     0.00000000
 H      1   2   3     1.014556385620   109.17540451   233.97412809
 C      2   1   3     1.529230151487   108.52341685   201.50301576
 C      2   1   3     1.535693936144   113.35212581    78.61072198
 H      2   1   3     1.096321857093   107.25450450   318.61999777
 C      3   1   2     1.531330066529   109.03719270    86.92574278
 H      3   1   2     1.106672973719   111.41654023   327.54270526
 C      3   1   2     1.526648189166   109.71274101   207.64793171
 H      5   2   1     1.087730387355   110.21909867   295.83237235
 H      5   2   1     1.087084889582   110.42651119   175.65552449
 H      5   2   1     1.086171613107   109.86138031    55.29965004
 H      6   2   1     1.089137703453   110.10959868    63.22722033
 H      6   2   1     1.088653104388   110.82263234   303.17758013
 H      6   2   1     1.087124661090   110.46670056   183.17180216
 H      8   3   1     1.086863440840   110.62924004   301.30498145
 H      8   3   1     1.087261327045   110.39628016   181.06402449
 H      8   3   1     1.086619724320   109.58046378    60.72974978
 H     10   3   1     1.087329395254   109.83471489   302.99197822
 H     10   3   1     1.087093143989   110.27556064   183.09252670
 H     10   3   1     1.088728305768   110.73997756    63.14666023

---------------------------
INTERNAL COORDINATES (A.U.)
---------------------------
 N      0   0   0     0.000000000000     0.00000000     0.00000000
 C      1   0   0     2.748158814551     0.00000000     0.00000000
 C      1   2   0     2.754860504434   116.60850993     0.00000000
 H      1   2   3     1.917233716243   109.17540451   233.97412809
 C      2   1   3     2.889826182045   108.52341685   201.50301576
 C      2   1   3     2.902040964836   113.35212581    78.61072198
 H      2   1   3     2.071748064538   107.25450450   318.61999777
 C      3   1   2     2.893794446379   109.03719270    86.92574278
 H      3   1   2     2.091308840141   111.41654023   327.54270526
 C      3   1   2     2.884946980371   109.71274101   207.64793171
 H      5   2   1     2.055512539644   110.21909867   295.83237235
 H      5   2   1     2.054292725635   110.42651119   175.65552449
 H      5   2   1     2.052566883212   109.86138031    55.29965004
 H      6   2   1     2.058171981654   110.10959868    63.22722033
 H      6   2   1     2.057256222137   110.82263234   303.17758013
 H      6   2   1     2.054367882892   110.46670056   183.17180216
 H      8   3   1     2.053874248158   110.62924004   301.30498145
 H      8   3   1     2.054626144119   110.39628016   181.06402449
 H      8   3   1     2.053413690682   109.58046378    60.72974978
 H     10   3   1     2.054754774392   109.83471489   302.99197822
 H     10   3   1     2.054308324203   110.27556064   183.09252670
 H     10   3   1     2.057398332150   110.73997756    63.14666023

---------------------
BASIS SET INFORMATION
---------------------
There are 3 groups of distinct atoms

 Group   1 Type N   : 11s6p2d1f contracted to 5s3p2d1f pattern {62111/411/11/1}
 Group   2 Type C   : 11s6p2d1f contracted to 5s3p2d1f pattern {62111/411/11/1}
 Group   3 Type H   : 5s1p contracted to 3s1p pattern {311/1}

Atom   0N    basis set group =>   1
Atom   1C    basis set group =>   2
Atom   2C    basis set group =>   2
Atom   3H    basis set group =>   3
Atom   4C    basis set group =>   2
Atom   5C    basis set group =>   2
Atom   6H    basis set group =>   3
Atom   7C    basis set group =>   2
Atom   8H    basis set group =>   3
Atom   9C    basis set group =>   2
Atom  10H    basis set group =>   3
Atom  11H    basis set group =>   3
Atom  12H    basis set group =>   3
Atom  13H    basis set group =>   3
Atom  14H    basis set group =>   3
Atom  15H    basis set group =>   3
Atom  16H    basis set group =>   3
Atom  17H    basis set group =>   3
Atom  18H    basis set group =>   3
Atom  19H    basis set group =>   3
Atom  20H    basis set group =>   3
Atom  21H    basis set group =>   3
---------------------------------
AUXILIARY/J BASIS SET INFORMATION
---------------------------------
There are 3 groups of distinct atoms

 Group   1 Type N   : 12s5p4d2f1g contracted to 6s4p3d1f1g pattern {711111/2111/211/2/1}
 Group   2 Type C   : 12s5p4d2f1g contracted to 6s4p3d1f1g pattern {711111/2111/211/2/1}
 Group   3 Type H   : 5s2p1d contracted to 3s1p1d pattern {311/2/1}

Atom   0N    basis set group =>   1
Atom   1C    basis set group =>   2
Atom   2C    basis set group =>   2
Atom   3H    basis set group =>   3
Atom   4C    basis set group =>   2
Atom   5C    basis set group =>   2
Atom   6H    basis set group =>   3
Atom   7C    basis set group =>   2
Atom   8H    basis set group =>   3
Atom   9C    basis set group =>   2
Atom  10H    basis set group =>   3
Atom  11H    basis set group =>   3
Atom  12H    basis set group =>   3
Atom  13H    basis set group =>   3
Atom  14H    basis set group =>   3
Atom  15H    basis set group =>   3
Atom  16H    basis set group =>   3
Atom  17H    basis set group =>   3
Atom  18H    basis set group =>   3
Atom  19H    basis set group =>   3
Atom  20H    basis set group =>   3
Atom  21H    basis set group =>   3


           ************************************************************
           *        Program running with 4 parallel MPI-processes     *
           *              working on a common directory               *
           ************************************************************
------------------------------------------------------------------------------
                           ORCA GTO INTEGRAL CALCULATION
                           -- RI-GTO INTEGRALS CHOSEN --
------------------------------------------------------------------------------
------------------------------------------------------------------------------
                   ___                                                        
                  /   \      - P O W E R E D   B Y -                         
                 /     \                                                     
                 |  |  |   _    _      __       _____    __    __             
                 |  |  |  | |  | |    /  \     |  _  \  |  |  /  |          
                  \  \/   | |  | |   /    \    | | | |  |  | /  /          
                 / \  \   | |__| |  /  /\  \   | |_| |  |  |/  /          
                |  |  |   |  __  | /  /__\  \  |    /   |      \           
                |  |  |   | |  | | |   __   |  |    \   |  |\   \          
                \     /   | |  | | |  |  |  |  | |\  \  |  | \   \       
                 \___/    |_|  |_| |__|  |__|  |_| \__\ |__|  \__/        
                                                                              
                      - O R C A' S   B I G   F R I E N D -                    
                                      &                                       
                       - I N T E G R A L  F E E D E R -                       
                                                                              
 v1 FN, 2020, v2 2021                                                         
------------------------------------------------------------------------------


Reading SHARK input file DiPA_freqopt.SHARKINP.tmp ... ok
----------------------
SHARK INTEGRAL PACKAGE
----------------------

Number of atoms                             ...     22
Number of basis functions                   ...    307
Number of shells                            ...    137
Maximum angular momentum                    ...      3
Integral batch strategy                     ... SHARK/LIBINT Hybrid
RI-J (if used) integral strategy            ... SPLIT-RIJ (Revised 2003 algorithm where possible)
Printlevel                                  ...      1
Contraction scheme used                     ... SEGMENTED contraction
Coulomb Range Separation                    ... NOT USED
Exchange Range Separation                   ... NOT USED
Finite Nucleus Model                        ... NOT USED
Auxiliary Coulomb fitting basis             ... AVAILABLE
   # of basis functions in Aux-J            ...    508
   # of shells in Aux-J                     ...    180
   Maximum angular momentum in Aux-J        ...      4
Auxiliary J/K fitting basis                 ... NOT available
Auxiliary Correlation fitting basis         ... NOT available
Auxiliary 'external' fitting basis          ... NOT available
Integral threshold                          ...     2.500000e-11
Primitive cut-off                           ...     2.500000e-12
Primitive pair pre-selection threshold      ...     2.500000e-12

Calculating pre-screening integrals         ... done (  0.1 sec) Dimension = 137
Organizing shell pair data                  ... done (  0.1 sec)
Shell pair information
Total number of shell pairs                 ...      9453
Shell pairs after pre-screening             ...      8664
Total number of primitive shell pairs       ...     26764
Primitive shell pairs kept                  ...     18702
          la=0 lb=0:   2909 shell pairs
          la=1 lb=0:   2627 shell pairs
          la=1 lb=1:    617 shell pairs
          la=2 lb=0:   1049 shell pairs
          la=2 lb=1:    482 shell pairs
          la=2 lb=2:    101 shell pairs
          la=3 lb=0:    520 shell pairs
          la=3 lb=1:    235 shell pairs
          la=3 lb=2:     96 shell pairs
          la=3 lb=3:     28 shell pairs

Calculating one electron integrals          ... done (  0.0 sec)
Calculating RI/J V-Matrix + Cholesky decomp.... done (  0.0 sec)
Calculating Nuclear repulsion               ... done (  0.0 sec) ENN=    335.695370419968 Eh

SHARK setup successfully completed in   0.7 seconds

Maximum memory used throughout the entire GTOINT-calculation: 21.6 MB


           ************************************************************
           *        Program running with 4 parallel MPI-processes     *
           *              working on a common directory               *
           ************************************************************
-------------------------------------------------------------------------------
                                 ORCA SCF
-------------------------------------------------------------------------------

------------
SCF SETTINGS
------------
Hamiltonian:
 Density Functional     Method          .... DFT(GTOs)
 Exchange Functional    Exchange        .... TPSS
 Correlation Functional Correlation     .... TPSS
 LDA part of GGA corr.  LDAOpt          .... PW91-LDA
 Gradients option       PostSCFGGA      .... off
   Density functional embedding theory  .... OFF
   NL short-range parameter             ....  5.000000
 RI-approximation to the Coulomb term is turned on
   Number of AuxJ basis functions       .... 508


General Settings:
 Integral files         IntName         .... DiPA_freqopt
 Hartree-Fock type      HFTyp           .... RHF
 Total Charge           Charge          ....    0
 Multiplicity           Mult            ....    1
 Number of Electrons    NEL             ....   58
 Basis Dimension        Dim             ....  307
 Nuclear Repulsion      ENuc            ....    335.6953704200 Eh

Convergence Acceleration:
 DIIS                   CNVDIIS         .... on
   Start iteration      DIISMaxIt       ....    12
   Startup error        DIISStart       ....  0.200000
   # of expansion vecs  DIISMaxEq       ....     5
   Bias factor          DIISBfac        ....   1.050
   Max. coefficient     DIISMaxC        ....  10.000
 Trust-Rad. Augm. Hess. CNVTRAH         .... auto
   Auto Start mean grad. ratio tolernc. ....  1.125000
   Auto Start start iteration           ....    20
   Auto Start num. interpolation iter.  ....    10
   Max. Number of Micro iterations      ....    16
   Max. Number of Macro iterations      .... Maxiter - #DIIS iter
   Number of Davidson start vectors     ....     2
   Converg. threshold I  (grad. norm)   ....   1.000e-05
   Converg. threshold II (energy diff.) ....   1.000e-08
   Grad. Scal. Fac. for Micro threshold ....   0.100
   Minimum threshold for Micro iter.    ....   0.010
   NR start threshold (gradient norm)   ....   0.001
   Initial trust radius                 ....   0.400
   Minimum AH scaling param. (alpha)    ....   1.000
   Maximum AH scaling param. (alpha)    .... 1000.000
   Orbital update algorithm             .... Taylor
   White noise on init. David. guess    .... on
   Maximum white noise                  ....   0.010
   Quad. conv. algorithm                .... NR
 SOSCF                  CNVSOSCF        .... on
   Start iteration      SOSCFMaxIt      ....   150
   Startup grad/error   SOSCFStart      ....  0.003300
 Level Shifting         CNVShift        .... on
   Level shift para.    LevelShift      ....    0.2500
   Turn off err/grad.   ShiftErr        ....    0.0010
 Zerner damping         CNVZerner       .... off
 Static damping         CNVDamp         .... on
   Fraction old density DampFac         ....    0.7000
   Max. Damping (<1)    DampMax         ....    0.9800
   Min. Damping (>=0)   DampMin         ....    0.0000
   Turn off err/grad.   DampErr         ....    0.1000
 Fernandez-Rico         CNVRico         .... off

SCF Procedure:
 Maximum # iterations   MaxIter         ....   125
 SCF integral mode      SCFMode         .... Direct
   Integral package                     .... SHARK and LIBINT hybrid scheme
 Reset frequency        DirectResetFreq ....    20
 Integral Threshold     Thresh          ....  2.500e-11 Eh
 Primitive CutOff       TCut            ....  2.500e-12 Eh

Convergence Tolerance:
 Convergence Check Mode ConvCheckMode   .... Total+1el-Energy
 Convergence forced     ConvForced      .... 0
 Energy Change          TolE            ....  1.000e-08 Eh
 1-El. energy change                    ....  1.000e-05 Eh
 Orbital Gradient       TolG            ....  1.000e-05
 Orbital Rotation angle TolX            ....  1.000e-05
 DIIS Error             TolErr          ....  5.000e-07


Diagonalization of the overlap matrix:
Smallest eigenvalue                        ... 2.146e-04
Time for diagonalization                   ...    0.041 sec
Threshold for overlap eigenvalues          ... 1.000e-08
Number of eigenvalues below threshold      ... 0
Time for construction of square roots      ...    0.021 sec
Total time needed                          ...    0.062 sec

Time for model grid setup =    0.294 sec

------------------------------
INITIAL GUESS: MODEL POTENTIAL
------------------------------
Loading Hartree-Fock densities                     ... done
Calculating cut-offs                               ... done
Initializing the effective Hamiltonian             ... done
Setting up the integral package (SHARK)            ... done
Starting the Coulomb interaction                   ... done (   0.3 sec)
Reading the grid                                   ... done
Mapping shells                                     ... done
Starting the XC term evaluation                    ... done (   0.3 sec)
  promolecular density results
     # of electrons  =     57.996982188
     EX              =    -41.673141668
     EC              =     -1.887225120
     EX+EC           =    -43.560366788
Transforming the Hamiltonian                       ... done (   0.0 sec)
Diagonalizing the Hamiltonian                      ... done (   0.0 sec)
Back transforming the eigenvectors                 ... done (   0.0 sec)
Now organizing SCF variables                       ... done
                      ------------------
                      INITIAL GUESS DONE (   1.0 sec)
                      ------------------
-------------------
DFT GRID GENERATION
-------------------

General Integration Accuracy     IntAcc      ... 4.388
Radial Grid Type                 RadialGrid  ... OptM3 with GC (2021)
Angular Grid (max. ang.)         AngularGrid ... 4 (Lebedev-302)
Angular grid pruning method      GridPruning ... 4 (adaptive)
Weight generation scheme         WeightScheme... Becke
Basis function cutoff            BFCut       ... 1.0000e-11
Integration weight cutoff        WCut        ... 1.0000e-14
Angular grids for H and He will be reduced by one unit
Partially contracted basis set               ... off
Rotationally invariant grid construction     ... off

Total number of grid points                  ...    89934
Total number of batches                      ...     1419
Average number of points per batch           ...       63
Average number of grid points per atom       ...     4088
Time for grid setup =    1.190 sec


--------------------
CPCM SOLVATION MODEL
--------------------
CPCM parameters:
  Epsilon                                         ...       7.2500
  Refrac                                          ...       1.4070
  Rsolv                                           ...       1.3000
  Surface type                                    ... GAUSSIAN VDW
  Epsilon function type                           ...         CPCM
Radii:
 Radius for N  used is    3.5149 Bohr (=   1.8600 Ang.)
 Radius for C  used is    3.8550 Bohr (=   2.0400 Ang.)
 Radius for H  used is    2.4944 Bohr (=   1.3200 Ang.)
Calculating surface                               ...        done! (  0.0s)
GEPOL surface points                              ...         1233
GEPOL Volume                                      ...    1066.7019
GEPOL Surface-area                                ...     627.8061
Calculating surface distance matrix               ...        done! (  0.0s)
Performing Cholesky decomposition & store         ...        done! (  0.2s)
Overall time for CPCM initialization              ...                 0.2s
--------------
SCF ITERATIONS
--------------
ITER       Energy         Delta-E        Max-DP      RMS-DP      [F,P]     Damp
               ***  Starting incremental Fock matrix formation  ***
  0   -292.2892842690   0.000000000000 0.04116213  0.00114020  0.2053704 0.7000
  1   -292.4319278521  -0.142643583114 0.03130317  0.00095174  0.0904319 0.7000
                               ***Turning on DIIS***
  2   -292.4832380932  -0.051310241094 0.05915170  0.00159963  0.0289545 0.0000
  3   -292.5515777796  -0.068339686409 0.02908413  0.00071874  0.0563594 0.0000
  4   -292.5774648317  -0.025887052047 0.01306726  0.00028944  0.0138566 0.0000
  5   -292.5790324796  -0.001567647894 0.00756781  0.00015596  0.0076927 0.0000
                      *** Initiating the SOSCF procedure ***
                           *** Shutting down DIIS ***
                      *** Re-Reading the Fockian *** 
                      *** Removing any level shift *** 
ITER      Energy       Delta-E        Grad      Rot      Max-DP    RMS-DP
  6   -292.57918519  -0.0001527102  0.000333  0.000333  0.003201  0.000065
               *** Restarting incremental Fock matrix formation ***
  7   -292.57919536  -0.0000101657  0.000124  0.000496  0.002783  0.000047
  8   -292.57919627  -0.0000009174  0.000072  0.000212  0.000935  0.000016
  9   -292.57919658  -0.0000003037  0.000061  0.000189  0.000902  0.000015
 10   -292.57919674  -0.0000001604  0.000014  0.000016  0.000042  0.000001
 11   -292.57919673   0.0000000065  0.000014  0.000021  0.000126  0.000002
                  ***Gradient check signals convergence***
              ***Rediagonalizing the Fockian in SOSCF/NRSCF***

               *****************************************************
               *                     SUCCESS                       *
               *           SCF CONVERGED AFTER  12 CYCLES          *
               *****************************************************


----------------
TOTAL SCF ENERGY
----------------

Total Energy       :         -292.57919675 Eh           -7961.48470 eV

Components:
Nuclear Repulsion  :          335.69537042 Eh            9134.73543 eV
Electronic Energy  :         -628.27456717 Eh          -17096.22013 eV
One Electron Energy:        -1058.21320628 Eh          -28795.44527 eV
Two Electron Energy:          429.93863911 Eh           11699.22515 eV
CPCM Dielectric    :           -0.00460894 Eh              -0.12542 eV

Virial components:
Potential Energy   :         -583.87547162 Eh          -15888.05932 eV
Kinetic Energy     :          291.29627487 Eh            7926.57462 eV
Virial Ratio       :            2.00440418


DFT components:
N(Alpha)           :       29.000004402361 electrons
N(Beta)            :       29.000004402361 electrons
N(Total)           :       58.000008804722 electrons
E(X)               :      -43.405602226438 Eh       
E(C)               :       -1.882252043173 Eh       
E(XC)              :      -45.287854269611 Eh       
DFET-embed. en.    :        0.000000000000 Eh       
CPCM Solvation Model Properties:
Surface-charge          :           -0.03239428
Charge-correction       :           -0.00009041 Eh              -0.00246 eV
Free-energy (cav+disp)  :  This term is not implemented in the current solvation scheme

---------------
SCF CONVERGENCE
---------------

  Last Energy change         ...   -1.5805e-08  Tolerance :   1.0000e-08
  Last MAX-Density change    ...    2.2722e-05  Tolerance :   1.0000e-07
  Last RMS-Density change    ...    3.8499e-07  Tolerance :   5.0000e-09
  Last Orbital Gradient      ...    1.3573e-06  Tolerance :   1.0000e-05
  Last Orbital Rotation      ...    4.3313e-06  Tolerance :   1.0000e-05

             **** THE GBW FILE WAS UPDATED (DiPA_freqopt.gbw) ****
             **** DENSITY DiPA_freqopt.scfp WAS UPDATED ****
             **** ENERGY FILE WAS UPDATED (DiPA_freqopt.en.tmp) ****
             **** THE GBW FILE WAS UPDATED (DiPA_freqopt.gbw) ****
             **** DENSITY DiPA_freqopt.scfp WAS UPDATED ****
----------------
ORBITAL ENERGIES
----------------

  NO   OCC          E(Eh)            E(eV) 
   0   2.0000     -14.071182      -382.8963 
   1   2.0000     -10.004285      -272.2304 
   2   2.0000     -10.003484      -272.2087 
   3   2.0000      -9.968074      -271.2451 
   4   2.0000      -9.964834      -271.1569 
   5   2.0000      -9.963323      -271.1158 
   6   2.0000      -9.962046      -271.0810 
   7   2.0000      -0.841806       -22.9067 
   8   2.0000      -0.725786       -19.7496 
   9   2.0000      -0.668978       -18.2038 
  10   2.0000      -0.630132       -17.1468 
  11   2.0000      -0.627546       -17.0764 
  12   2.0000      -0.533616       -14.5204 
  13   2.0000      -0.522275       -14.2118 
  14   2.0000      -0.441024       -12.0009 
  15   2.0000      -0.415719       -11.3123 
  16   2.0000      -0.403327       -10.9751 
  17   2.0000      -0.384235       -10.4556 
  18   2.0000      -0.367659       -10.0045 
  19   2.0000      -0.360012        -9.7964 
  20   2.0000      -0.345536        -9.4025 
  21   2.0000      -0.343075        -9.3355 
  22   2.0000      -0.334013        -9.0890 
  23   2.0000      -0.312352        -8.4995 
  24   2.0000      -0.306450        -8.3389 
  25   2.0000      -0.296427        -8.0662 
  26   2.0000      -0.287810        -7.8317 
  27   2.0000      -0.284192        -7.7332 
  28   2.0000      -0.180082        -4.9003 
  29   0.0000       0.027710         0.7540 
  30   0.0000       0.052844         1.4379 
  31   0.0000       0.056114         1.5269 
  32   0.0000       0.063261         1.7214 
  33   0.0000       0.086639         2.3576 
  34   0.0000       0.090885         2.4731 
  35   0.0000       0.093334         2.5398 
  36   0.0000       0.095371         2.5952 
  37   0.0000       0.109409         2.9772 
  38   0.0000       0.112745         3.0680 
  39   0.0000       0.119986         3.2650 
  40   0.0000       0.134479         3.6594 
  41   0.0000       0.141521         3.8510 
  42   0.0000       0.145142         3.9495 
  43   0.0000       0.152138         4.1399 
  44   0.0000       0.153773         4.1844 
  45   0.0000       0.160567         4.3692 
  46   0.0000       0.171225         4.6593 
  47   0.0000       0.180586         4.9140 
  48   0.0000       0.186026         5.0620 
  49   0.0000       0.186736         5.0813 
  50   0.0000       0.199935         5.4405 
  51   0.0000       0.226214         6.1556 
  52   0.0000       0.233507         6.3540 
  53   0.0000       0.253974         6.9110 
  54   0.0000       0.264744         7.2041 
  55   0.0000       0.284586         7.7440 
  56   0.0000       0.293787         7.9943 
  57   0.0000       0.299707         8.1555 
  58   0.0000       0.301710         8.2099 
  59   0.0000       0.314813         8.5665 
  60   0.0000       0.319148         8.6844 
  61   0.0000       0.334382         9.0990 
  62   0.0000       0.363942         9.9034 
  63   0.0000       0.372335        10.1318 
  64   0.0000       0.384644        10.4667 
  65   0.0000       0.395711        10.7678 
  66   0.0000       0.409935        11.1549 
  67   0.0000       0.413926        11.2635 
  68   0.0000       0.416137        11.3237 
  69   0.0000       0.419759        11.4222 
  70   0.0000       0.430169        11.7055 
  71   0.0000       0.441746        12.0205 
  72   0.0000       0.445965        12.1353 
  73   0.0000       0.448701        12.2098 
  74   0.0000       0.454373        12.3641 
  75   0.0000       0.461847        12.5675 
  76   0.0000       0.467689        12.7265 
  77   0.0000       0.469683        12.7807 
  78   0.0000       0.478825        13.0295 
  79   0.0000       0.483911        13.1679 
  80   0.0000       0.488974        13.3056 
  81   0.0000       0.496042        13.4980 
  82   0.0000       0.517466        14.0810 
  83   0.0000       0.532095        14.4791 
  84   0.0000       0.561287        15.2734 
  85   0.0000       0.570807        15.5324 
  86   0.0000       0.581608        15.8263 
  87   0.0000       0.588280        16.0079 
  88   0.0000       0.631660        17.1883 
  89   0.0000       0.639233        17.3944 
  90   0.0000       0.668469        18.1900 
  91   0.0000       0.694353        18.8943 
  92   0.0000       0.729374        19.8473 
  93   0.0000       0.731508        19.9053 
  94   0.0000       0.746949        20.3255 
  95   0.0000       0.785718        21.3805 
  96   0.0000       0.802977        21.8501 
  97   0.0000       0.815985        22.2041 
  98   0.0000       0.818683        22.2775 
  99   0.0000       0.838695        22.8220 
 100   0.0000       0.867767        23.6131 
 101   0.0000       0.882933        24.0258 
 102   0.0000       0.902153        24.5488 
 103   0.0000       0.945949        25.7406 
 104   0.0000       0.949906        25.8482 
 105   0.0000       0.975655        26.5489 
 106   0.0000       0.976342        26.5676 
 107   0.0000       0.987404        26.8686 
 108   0.0000       1.014994        27.6194 
 109   0.0000       1.045875        28.4597 
 110   0.0000       1.063803        28.9476 
 111   0.0000       1.074661        29.2430 
 112   0.0000       1.078299        29.3420 
 113   0.0000       1.079293        29.3691 
 114   0.0000       1.111155        30.2361 
 115   0.0000       1.138181        30.9715 
 116   0.0000       1.156406        31.4674 
 117   0.0000       1.160706        31.5844 
 118   0.0000       1.182169        32.1684 
 119   0.0000       1.224671        33.3250 
 120   0.0000       1.251299        34.0496 
 121   0.0000       1.281486        34.8710 
 122   0.0000       1.303603        35.4728 
 123   0.0000       1.384173        37.6653 
 124   0.0000       1.407657        38.3043 
 125   0.0000       1.441239        39.2181 
 126   0.0000       1.466412        39.9031 
 127   0.0000       1.478217        40.2243 
 128   0.0000       1.506734        41.0003 
 129   0.0000       1.511579        41.1322 
 130   0.0000       1.514580        41.2138 
 131   0.0000       1.530764        41.6542 
 132   0.0000       1.535519        41.7836 
 133   0.0000       1.537807        41.8458 
 134   0.0000       1.538704        41.8703 
 135   0.0000       1.543712        42.0066 
 136   0.0000       1.560062        42.4515 
 137   0.0000       1.578901        42.9641 
 138   0.0000       1.583532        43.0901 
 139   0.0000       1.592537        43.3351 
 140   0.0000       1.614149        43.9232 
 141   0.0000       1.615704        43.9655 
 142   0.0000       1.634030        44.4642 
 143   0.0000       1.638677        44.5907 
 144   0.0000       1.678832        45.6833 
 145   0.0000       1.683117        45.7999 
 146   0.0000       1.707753        46.4703 
 147   0.0000       1.720817        46.8258 
 148   0.0000       1.733310        47.1658 
 149   0.0000       1.752409        47.6855 
 150   0.0000       1.756662        47.8012 
 151   0.0000       1.824341        49.6428 
 152   0.0000       1.845142        50.2089 
 153   0.0000       1.888328        51.3840 
 154   0.0000       1.913859        52.0787 
 155   0.0000       1.931707        52.5644 
 156   0.0000       1.946538        52.9680 
 157   0.0000       1.952599        53.1329 
 158   0.0000       1.974789        53.7367 
 159   0.0000       2.000890        54.4470 
 160   0.0000       2.037194        55.4349 
 161   0.0000       2.073274        56.4167 
 162   0.0000       2.095932        57.0332 
 163   0.0000       2.109856        57.4121 
 164   0.0000       2.128551        57.9208 
 165   0.0000       2.133490        58.0552 
 166   0.0000       2.151432        58.5434 
 167   0.0000       2.163592        58.8743 
 168   0.0000       2.202540        59.9342 
 169   0.0000       2.217685        60.3463 
 170   0.0000       2.253536        61.3218 
 171   0.0000       2.256598        61.4052 
 172   0.0000       2.285374        62.1882 
 173   0.0000       2.307431        62.7884 
 174   0.0000       2.324645        63.2568 
 175   0.0000       2.335373        63.5487 
 176   0.0000       2.351672        63.9922 
 177   0.0000       2.364773        64.3487 
 178   0.0000       2.365195        64.3602 
 179   0.0000       2.381988        64.8172 
 180   0.0000       2.391216        65.0683 
 181   0.0000       2.403932        65.4143 
 182   0.0000       2.415337        65.7247 
 183   0.0000       2.427802        66.0639 
 184   0.0000       2.435751        66.2802 
 185   0.0000       2.459823        66.9352 
 186   0.0000       2.488333        67.7110 
 187   0.0000       2.490812        67.7784 
 188   0.0000       2.510041        68.3017 
 189   0.0000       2.532017        68.8997 
 190   0.0000       2.560640        69.6786 
 191   0.0000       2.572242        69.9943 
 192   0.0000       2.577732        70.1437 
 193   0.0000       2.593536        70.5737 
 194   0.0000       2.604433        70.8702 
 195   0.0000       2.623528        71.3898 
 196   0.0000       2.627431        71.4960 
 197   0.0000       2.634571        71.6903 
 198   0.0000       2.650803        72.1320 
 199   0.0000       2.672092        72.7113 
 200   0.0000       2.692204        73.2586 
 201   0.0000       2.705681        73.6253 
 202   0.0000       2.723626        74.1136 
 203   0.0000       2.746615        74.7392 
 204   0.0000       2.760870        75.1271 
 205   0.0000       2.778884        75.6173 
 206   0.0000       2.786509        75.8248 
 207   0.0000       2.815436        76.6119 
 208   0.0000       2.816247        76.6340 
 209   0.0000       2.840737        77.3004 
 210   0.0000       2.865722        77.9803 
 211   0.0000       2.916965        79.3747 
 212   0.0000       2.926585        79.6364 
 213   0.0000       2.950010        80.2738 
 214   0.0000       3.033839        82.5549 
 215   0.0000       3.053772        83.0974 
 216   0.0000       3.062285        83.3290 
 217   0.0000       3.075692        83.6938 
 218   0.0000       3.085077        83.9492 
 219   0.0000       3.097571        84.2892 
 220   0.0000       3.123425        84.9927 
 221   0.0000       3.129900        85.1689 
 222   0.0000       3.138984        85.4161 
 223   0.0000       3.158173        85.9383 
 224   0.0000       3.182451        86.5989 
 225   0.0000       3.188032        86.7508 
 226   0.0000       3.210049        87.3499 
 227   0.0000       3.232552        87.9622 
 228   0.0000       3.254260        88.5529 
 229   0.0000       3.282378        89.3180 
 230   0.0000       3.294153        89.6384 
 231   0.0000       3.313765        90.1721 
 232   0.0000       3.328998        90.5867 
 233   0.0000       3.338547        90.8465 
 234   0.0000       3.373656        91.8019 
 235   0.0000       3.376854        91.8889 
 236   0.0000       3.394885        92.3795 
 237   0.0000       3.406132        92.6856 
 238   0.0000       3.427659        93.2713 
 239   0.0000       3.449217        93.8580 
 240   0.0000       3.481797        94.7445 
 241   0.0000       3.495099        95.1065 
 242   0.0000       3.522622        95.8554 
 243   0.0000       3.548834        96.5687 
 244   0.0000       3.555128        96.7399 
 245   0.0000       3.565645        97.0261 
 246   0.0000       3.575718        97.3002 
 247   0.0000       3.595000        97.8249 
 248   0.0000       3.599935        97.9592 
 249   0.0000       3.605609        98.1136 
 250   0.0000       3.640055        99.0509 
 251   0.0000       3.675270       100.0092 
 252   0.0000       3.700846       100.7051 
 253   0.0000       3.722944       101.3065 
 254   0.0000       3.791949       103.1842 
 255   0.0000       3.823726       104.0489 
 256   0.0000       3.848966       104.7357 
 257   0.0000       3.905415       106.2717 
 258   0.0000       3.918866       106.6378 
 259   0.0000       3.954375       107.6040 
 260   0.0000       3.980073       108.3033 
 261   0.0000       4.014234       109.2329 
 262   0.0000       4.036620       109.8420 
 263   0.0000       4.042487       110.0017 
 264   0.0000       4.050285       110.2139 
 265   0.0000       4.068051       110.6973 
 266   0.0000       4.102373       111.6313 
 267   0.0000       4.147498       112.8592 
 268   0.0000       4.191684       114.0615 
 269   0.0000       4.250929       115.6737 
 270   0.0000       4.342440       118.1638 
 271   0.0000       4.366991       118.8319 
 272   0.0000       4.405184       119.8711 
 273   0.0000       4.437420       120.7483 
 274   0.0000       4.451130       121.1214 
 275   0.0000       4.458035       121.3093 
 276   0.0000       4.473138       121.7203 
 277   0.0000       4.483643       122.0061 
 278   0.0000       4.521727       123.0425 
 279   0.0000       4.540193       123.5449 
 280   0.0000       4.605175       125.3132 
 281   0.0000       4.619257       125.6964 
 282   0.0000       4.650961       126.5591 
 283   0.0000       4.695114       127.7605 
 284   0.0000       4.752766       129.3293 
 285   0.0000       4.793552       130.4392 
 286   0.0000       4.809092       130.8620 
 287   0.0000       4.852336       132.0388 
 288   0.0000       4.881014       132.8191 
 289   0.0000       4.949886       134.6932 
 290   0.0000       5.032199       136.9331 
 291   0.0000       5.081524       138.2753 
 292   0.0000       5.171432       140.7218 
 293   0.0000       5.271574       143.4468 
 294   0.0000       5.304541       144.3439 
 295   0.0000       5.376032       146.2893 
 296   0.0000       5.418308       147.4396 
 297   0.0000       5.609988       152.6555 
 298   0.0000       5.699022       155.0783 
 299   0.0000       5.973825       162.5561 
 300   0.0000      22.296728       606.7248 
 301   0.0000      22.320110       607.3611 
 302   0.0000      22.325540       607.5088 
 303   0.0000      22.361381       608.4841 
 304   0.0000      22.599710       614.9694 
 305   0.0000      22.610890       615.2736 
 306   0.0000      32.469118       883.5296 

                    ********************************
                    * MULLIKEN POPULATION ANALYSIS *
                    ********************************

-----------------------
MULLIKEN ATOMIC CHARGES
-----------------------
   0 N :   -0.400092
   1 C :    0.067380
   2 C :    0.092349
   3 H :    0.201055
   4 C :   -0.344372
   5 C :   -0.370874
   6 H :    0.075015
   7 C :   -0.335877
   8 H :    0.046409
   9 C :   -0.372974
  10 H :    0.107771
  11 H :    0.110447
  12 H :    0.109143
  13 H :    0.109048
  14 H :    0.119255
  15 H :    0.114171
  16 H :    0.113303
  17 H :    0.107016
  18 H :    0.097857
  19 H :    0.111939
  20 H :    0.120497
  21 H :    0.121536
Sum of atomic charges:    0.0000000

--------------------------------
MULLIKEN REDUCED ORBITAL CHARGES
--------------------------------
  0 N s       :     3.535818  s :     3.535818
      pz      :     1.151000  p :     3.800102
      px      :     1.068573
      py      :     1.580529
      dz2     :     0.010469  d :     0.060584
      dxz     :     0.018025
      dyz     :     0.010012
      dx2y2   :     0.009051
      dxy     :     0.013025
      f0      :     0.000585  f :     0.003589
      f+1     :     0.000489
      f-1     :     0.000487
      f+2     :     0.000515
      f-2     :     0.000515
      f+3     :     0.000541
      f-3     :     0.000456
  1 C s       :     3.103203  s :     3.103203
      pz      :     0.953378  p :     2.653683
      px      :     0.788836
      py      :     0.911469
      dz2     :     0.027209  d :     0.164337
      dxz     :     0.028255
      dyz     :     0.031687
      dx2y2   :     0.034015
      dxy     :     0.043172
      f0      :     0.001644  f :     0.011397
      f+1     :     0.001253
      f-1     :     0.001153
      f+2     :     0.001826
      f-2     :     0.000819
      f+3     :     0.002428
      f-3     :     0.002274
  2 C s       :     3.113291  s :     3.113291
      pz      :     0.791867  p :     2.617047
      px      :     0.886306
      py      :     0.938874
      dz2     :     0.025270  d :     0.165809
      dxz     :     0.032497
      dyz     :     0.050100
      dx2y2   :     0.026867
      dxy     :     0.031074
      f0      :     0.001751  f :     0.011505
      f+1     :     0.001519
      f-1     :     0.001964
      f+2     :     0.001879
      f-2     :     0.001694
      f+3     :     0.001333
      f-3     :     0.001366
  3 H s       :     0.763569  s :     0.763569
      pz      :     0.013259  p :     0.035377
      px      :     0.009071
      py      :     0.013047
  4 C s       :     3.224894  s :     3.224894
      pz      :     0.978021  p :     3.054709
      px      :     1.029323
      py      :     1.047365
      dz2     :     0.020092  d :     0.060078
      dxz     :     0.007942
      dyz     :     0.010842
      dx2y2   :     0.017160
      dxy     :     0.004042
      f0      :     0.000681  f :     0.004690
      f+1     :     0.000977
      f-1     :     0.000866
      f+2     :     0.000495
      f-2     :     0.000539
      f+3     :     0.000458
      f-3     :     0.000675
  5 C s       :     3.235976  s :     3.235976
      pz      :     1.054621  p :     3.070161
      px      :     1.056142
      py      :     0.959398
      dz2     :     0.007846  d :     0.060186
      dxz     :     0.005857
      dyz     :     0.020588
      dx2y2   :     0.010997
      dxy     :     0.014899
      f0      :     0.000342  f :     0.004551
      f+1     :     0.000822
      f-1     :     0.000744
      f+2     :     0.000568
      f-2     :     0.000327
      f+3     :     0.001032
      f-3     :     0.000716
  6 H s       :     0.904819  s :     0.904819
      pz      :     0.009194  p :     0.020166
      px      :     0.005244
      py      :     0.005728
  7 C s       :     3.214940  s :     3.214940
      pz      :     1.031673  p :     3.055768
      px      :     1.055828
      py      :     0.968266
      dz2     :     0.012670  d :     0.060557
      dxz     :     0.008417
      dyz     :     0.013174
      dx2y2   :     0.014611
      dxy     :     0.011684
      f0      :     0.000394  f :     0.004611
      f+1     :     0.000727
      f-1     :     0.000767
      f+2     :     0.000804
      f-2     :     0.000566
      f+3     :     0.000878
      f-3     :     0.000476
  8 H s       :     0.933408  s :     0.933408
      pz      :     0.007211  p :     0.020183
      px      :     0.004892
      py      :     0.008080
  9 C s       :     3.240875  s :     3.240875
      pz      :     1.060923  p :     3.065085
      px      :     0.948181
      py      :     1.055981
      dz2     :     0.005014  d :     0.062308
      dxz     :     0.019793
      dyz     :     0.010346
      dx2y2   :     0.011598
      dxy     :     0.015556
      f0      :     0.000548  f :     0.004706
      f+1     :     0.000889
      f-1     :     0.000215
      f+2     :     0.001066
      f-2     :     0.000325
      f+3     :     0.000705
      f-3     :     0.000959
 10 H s       :     0.872700  s :     0.872700
      pz      :     0.008891  p :     0.019530
      px      :     0.005216
      py      :     0.005423
 11 H s       :     0.869849  s :     0.869849
      pz      :     0.004569  p :     0.019704
      px      :     0.010405
      py      :     0.004729
 12 H s       :     0.870946  s :     0.870946
      pz      :     0.004670  p :     0.019911
      px      :     0.004593
      py      :     0.010648
 13 H s       :     0.871393  s :     0.871393
      pz      :     0.008170  p :     0.019559
      px      :     0.005237
      py      :     0.006152
 14 H s       :     0.860568  s :     0.860568
      pz      :     0.008540  p :     0.020177
      px      :     0.005842
      py      :     0.005795
 15 H s       :     0.865862  s :     0.865862
      pz      :     0.004603  p :     0.019966
      px      :     0.010013
      py      :     0.005350
 16 H s       :     0.866451  s :     0.866451
      pz      :     0.004774  p :     0.020246
      px      :     0.010389
      py      :     0.005082
 17 H s       :     0.873253  s :     0.873253
      pz      :     0.009417  p :     0.019731
      px      :     0.005710
      py      :     0.004604
 18 H s       :     0.882420  s :     0.882420
      pz      :     0.006372  p :     0.019723
      px      :     0.005211
      py      :     0.008141
 19 H s       :     0.868517  s :     0.868517
      pz      :     0.006979  p :     0.019544
      px      :     0.005425
      py      :     0.007139
 20 H s       :     0.859653  s :     0.859653
      pz      :     0.008752  p :     0.019850
      px      :     0.006494
      py      :     0.004603
 21 H s       :     0.858914  s :     0.858914
      pz      :     0.005418  p :     0.019550
      px      :     0.004829
      py      :     0.009303


                     *******************************
                     * LOEWDIN POPULATION ANALYSIS *
                     *******************************

----------------------
LOEWDIN ATOMIC CHARGES
----------------------
   0 N :    0.027074
   1 C :   -0.359972
   2 C :   -0.362624
   3 H :    0.172495
   4 C :   -0.288863
   5 C :   -0.292950
   6 H :    0.144824
   7 C :   -0.287633
   8 H :    0.130693
   9 C :   -0.286978
  10 H :    0.117018
  11 H :    0.117521
  12 H :    0.114531
  13 H :    0.116977
  14 H :    0.115346
  15 H :    0.118448
  16 H :    0.114418
  17 H :    0.116122
  18 H :    0.114973
  19 H :    0.118904
  20 H :    0.122227
  21 H :    0.117449

-------------------------------
LOEWDIN REDUCED ORBITAL CHARGES
-------------------------------
  0 N s       :     2.994712  s :     2.994712
      pz      :     1.176733  p :     3.748289
      px      :     1.113157
      py      :     1.458399
      dz2     :     0.039720  d :     0.214802
      dxz     :     0.068412
      dyz     :     0.034927
      dx2y2   :     0.033670
      dxy     :     0.038073
      f0      :     0.003022  f :     0.015124
      f+1     :     0.001940
      f-1     :     0.001742
      f+2     :     0.001773
      f-2     :     0.002749
      f+3     :     0.002278
      f-3     :     0.001619
  1 C s       :     2.747155  s :     2.747155
      pz      :     1.014879  p :     2.928232
      px      :     0.902355
      py      :     1.010997
      dz2     :     0.106210  d :     0.613605
      dxz     :     0.114522
      dyz     :     0.103632
      dx2y2   :     0.140337
      dxy     :     0.148905
      f0      :     0.009504  f :     0.070981
      f+1     :     0.008045
      f-1     :     0.007278
      f+2     :     0.010191
      f-2     :     0.007678
      f+3     :     0.014334
      f-3     :     0.013952
  2 C s       :     2.749113  s :     2.749113
      pz      :     0.920658  p :     2.922473
      px      :     0.988432
      py      :     1.013383
      dz2     :     0.110700  d :     0.619980
      dxz     :     0.124145
      dyz     :     0.172116
      dx2y2   :     0.113443
      dxy     :     0.099575
      f0      :     0.011884  f :     0.071059
      f+1     :     0.010859
      f-1     :     0.011079
      f+2     :     0.008833
      f-2     :     0.011410
      f+3     :     0.008112
      f-3     :     0.008882
  3 H s       :     0.720491  s :     0.720491
      pz      :     0.035267  p :     0.107014
      px      :     0.025965
      py      :     0.045783
  4 C s       :     2.835752  s :     2.835752
      pz      :     1.045328  p :     3.162682
      px      :     1.057237
      py      :     1.060117
      dz2     :     0.080453  d :     0.264754
      dxz     :     0.043127
      dyz     :     0.048965
      dx2y2   :     0.074988
      dxy     :     0.017222
      f0      :     0.003722  f :     0.025675
      f+1     :     0.004964
      f-1     :     0.004811
      f+2     :     0.002471
      f-2     :     0.004955
      f+3     :     0.001961
      f-3     :     0.002790
  5 C s       :     2.836708  s :     2.836708
      pz      :     1.065092  p :     3.168541
      px      :     1.064802
      py      :     1.038647
      dz2     :     0.038999  d :     0.262488
      dxz     :     0.025986
      dyz     :     0.081200
      dx2y2   :     0.060455
      dxy     :     0.055848
      f0      :     0.002214  f :     0.025212
      f+1     :     0.003295
      f-1     :     0.003934
      f+2     :     0.003143
      f-2     :     0.003258
      f+3     :     0.005559
      f-3     :     0.003809
  6 H s       :     0.799297  s :     0.799297
      pz      :     0.025440  p :     0.055879
      px      :     0.014064
      py      :     0.016375
  7 C s       :     2.836429  s :     2.836429
      pz      :     1.057961  p :     3.161560
      px      :     1.061390
      py      :     1.042209
      dz2     :     0.051903  d :     0.264112
      dxz     :     0.035102
      dyz     :     0.060130
      dx2y2   :     0.068748
      dxy     :     0.048229
      f0      :     0.002295  f :     0.025532
      f+1     :     0.003359
      f-1     :     0.004311
      f+2     :     0.003087
      f-2     :     0.004103
      f+3     :     0.005310
      f-3     :     0.003068
  8 H s       :     0.813395  s :     0.813395
      pz      :     0.019687  p :     0.055912
      px      :     0.013558
      py      :     0.022666
  9 C s       :     2.833043  s :     2.833043
      pz      :     1.067941  p :     3.163103
      px      :     1.032008
      py      :     1.063154
      dz2     :     0.027156  d :     0.265024
      dxz     :     0.076038
      dyz     :     0.041996
      dx2y2   :     0.061347
      dxy     :     0.058487
      f0      :     0.003029  f :     0.025807
      f+1     :     0.004770
      f-1     :     0.001258
      f+2     :     0.003985
      f-2     :     0.002525
      f+3     :     0.004123
      f-3     :     0.006117
 10 H s       :     0.821758  s :     0.821758
      pz      :     0.027115  p :     0.061224
      px      :     0.016807
      py      :     0.017302
 11 H s       :     0.821325  s :     0.821325
      pz      :     0.013390  p :     0.061154
      px      :     0.033308
      py      :     0.014455
 12 H s       :     0.824151  s :     0.824151
      pz      :     0.013329  p :     0.061318
      px      :     0.013535
      py      :     0.034454
 13 H s       :     0.821917  s :     0.821917
      pz      :     0.027360  p :     0.061106
      px      :     0.016325
      py      :     0.017421
 14 H s       :     0.823046  s :     0.823046
      pz      :     0.027363  p :     0.061608
      px      :     0.018402
      py      :     0.015843
 15 H s       :     0.819892  s :     0.819892
      pz      :     0.013635  p :     0.061660
      px      :     0.033340
      py      :     0.014685
 16 H s       :     0.823852  s :     0.823852
      pz      :     0.013829  p :     0.061731
      px      :     0.033848
      py      :     0.014054
 17 H s       :     0.822674  s :     0.822674
      pz      :     0.029825  p :     0.061204
      px      :     0.018138
      py      :     0.013241
 18 H s       :     0.823599  s :     0.823599
      pz      :     0.021144  p :     0.061428
      px      :     0.016097
      py      :     0.024187
 19 H s       :     0.819537  s :     0.819537
      pz      :     0.022228  p :     0.061558
      px      :     0.015619
      py      :     0.023711
 20 H s       :     0.816625  s :     0.816625
      pz      :     0.029449  p :     0.061147
      px      :     0.018118
      py      :     0.013580
 21 H s       :     0.821517  s :     0.821517
      pz      :     0.016589  p :     0.061034
      px      :     0.013551
      py      :     0.030893


                      *****************************
                      * MAYER POPULATION ANALYSIS *
                      *****************************

  NA   - Mulliken gross atomic population
  ZA   - Total nuclear charge
  QA   - Mulliken gross atomic charge
  VA   - Mayer's total valence
  BVA  - Mayer's bonded valence
  FA   - Mayer's free valence

  ATOM       NA         ZA         QA         VA         BVA        FA
  0 N      7.4001     7.0000    -0.4001     2.9304     2.9304    -0.0000
  1 C      5.9326     6.0000     0.0674     3.9741     3.9741     0.0000
  2 C      5.9077     6.0000     0.0923     3.9520     3.9520    -0.0000
  3 H      0.7989     1.0000     0.2011     0.9628     0.9628    -0.0000
  4 C      6.3444     6.0000    -0.3444     3.8880     3.8880    -0.0000
  5 C      6.3709     6.0000    -0.3709     3.9045     3.9045     0.0000
  6 H      0.9250     1.0000     0.0750     0.9616     0.9616    -0.0000
  7 C      6.3359     6.0000    -0.3359     3.8717     3.8717    -0.0000
  8 H      0.9536     1.0000     0.0464     0.9643     0.9643    -0.0000
  9 C      6.3730     6.0000    -0.3730     3.8898     3.8898     0.0000
 10 H      0.8922     1.0000     0.1078     0.9836     0.9836     0.0000
 11 H      0.8896     1.0000     0.1104     0.9745     0.9745    -0.0000
 12 H      0.8909     1.0000     0.1091     0.9936     0.9936     0.0000
 13 H      0.8910     1.0000     0.1090     0.9847     0.9847     0.0000
 14 H      0.8807     1.0000     0.1193     0.9732     0.9732     0.0000
 15 H      0.8858     1.0000     0.1142     0.9752     0.9752    -0.0000
 16 H      0.8867     1.0000     0.1133     0.9806     0.9806    -0.0000
 17 H      0.8930     1.0000     0.1070     0.9816     0.9816    -0.0000
 18 H      0.9021     1.0000     0.0979     1.0005     1.0005     0.0000
 19 H      0.8881     1.0000     0.1119     0.9877     0.9877     0.0000
 20 H      0.8795     1.0000     0.1205     0.9758     0.9758     0.0000
 21 H      0.8785     1.0000     0.1215     0.9725     0.9725     0.0000

  Mayer bond orders larger than 0.100000
B(  0-N ,  1-C ) :   0.9753 B(  0-N ,  2-C ) :   0.9789 B(  0-N ,  3-H ) :   0.9195 
B(  1-C ,  4-C ) :   0.9902 B(  1-C ,  5-C ) :   1.0092 B(  1-C ,  6-H ) :   0.9302 
B(  2-C ,  7-C ) :   1.0053 B(  2-C ,  8-H ) :   0.9303 B(  2-C ,  9-C ) :   0.9804 
B(  4-C , 10-H ) :   0.9658 B(  4-C , 11-H ) :   0.9666 B(  4-C , 12-H ) :   0.9715 
B(  5-C , 13-H ) :   0.9635 B(  5-C , 14-H ) :   0.9630 B(  5-C , 15-H ) :   0.9652 
B(  7-C , 16-H ) :   0.9628 B(  7-C , 17-H ) :   0.9652 B(  7-C , 18-H ) :   0.9672 
B(  9-C , 19-H ) :   0.9659 B(  9-C , 20-H ) :   0.9690 B(  9-C , 21-H ) :   0.9673 


-------
TIMINGS
-------

Total SCF time: 0 days 0 hours 0 min 58 sec 

Total time                  ....      58.909 sec
Sum of individual times     ....      57.996 sec  ( 98.5%)

Fock matrix formation       ....      54.776 sec  ( 93.0%)
  Split-RI-J                ....       6.881 sec  ( 12.6% of F)
  XC integration            ....      33.031 sec  ( 60.3% of F)
    Basis function eval.    ....       4.649 sec  ( 14.1% of XC)
    Density eval.           ....      13.054 sec  ( 39.5% of XC)
    XC-Functional eval.     ....       1.464 sec  (  4.4% of XC)
    XC-Potential eval.      ....      12.770 sec  ( 38.7% of XC)
Diagonalization             ....       0.486 sec  (  0.8%)
Density matrix formation    ....       0.028 sec  (  0.0%)
Population analysis         ....       0.050 sec  (  0.1%)
Initial guess               ....       0.689 sec  (  1.2%)
Orbital Transformation      ....       0.000 sec  (  0.0%)
Orbital Orthonormalization  ....       0.000 sec  (  0.0%)
DIIS solution               ....       0.211 sec  (  0.4%)
SOSCF solution              ....       0.272 sec  (  0.5%)
Grid generation             ....       1.484 sec  (  2.5%)

Maximum memory used throughout the entire SCF-calculation: 51.5 MB


-------------------------------------------------------------------------------
                          DFT DISPERSION CORRECTION                            
                                                                               
                              DFTD3 V3.1  Rev 1                                
                          USING Becke-Johnson damping                          
-------------------------------------------------------------------------------
The TPSS functional is recognized
Active option DFTDOPT                   ...         4   

molecular C6(AA) [au] = 3119.146371 


            DFT-D V3
 parameters
 s6 scaling factor         :     1.0000 
 a1 scaling factor         :     0.4535 
 s8 scaling factor         :     1.9435 
 a2 scaling factor         :     4.4752 
 ad hoc parameters k1-k3   :    16.0000     1.3333    -4.0000 

 Edisp/kcal,au: -14.349242255967  -0.022866970649 
 E6   /kcal   :  -7.647402427 
 E8   /kcal   :  -6.701839829 
 % E8         :  46.705182821 

-------------------------   ----------------
Dispersion correction           -0.022866971
-------------------------   ----------------


-------------------------   --------------------
FINAL SINGLE POINT ENERGY      -292.602063717002
-------------------------   --------------------



           ************************************************************
           *        Program running with 4 parallel MPI-processes     *
           *              working on a common directory               *
           ************************************************************
------------------------------------------------------------------------------
                         ORCA SCF GRADIENT CALCULATION
------------------------------------------------------------------------------

Gradient of the Kohn-Sham DFT energy:
Kohn-Sham wavefunction type      ... RKS
Hartree-Fock exchange scaling    ...    0.000
Number of operators              ...    1
Number of atoms                  ...   22
Basis set dimensions             ...  307
Integral neglect threshold       ... 2.5e-11
Integral primitive cutoff        ... 2.5e-12
SHARK Integral package           ... ON

Nuc. rep. gradient       (SHARK) ... done (  0.0 sec)
HCore & Overlap gradient (SHARK) ... done (  0.4 sec)
RI-J gradient            (SHARK) ... done (  2.0 sec)
Exchange-correlation gradient    ... done
Dispersion correction            ... done

------------------
CARTESIAN GRADIENT
[...]
     63       0.153997  -0.064931   0.024031  -0.000822   0.205551   0.014482
     64       0.422913  -0.170271   0.061895  -0.001922   0.509411   0.035532
     65       0.374896  -0.151690   0.054807  -0.002067   0.469538   0.033135
                 60         61         62         63         64         65    
      0       0.000182  -0.000155  -0.000072   0.000017  -0.000247  -0.029564
      1       0.000240   0.000177   0.000070  -0.000208   0.000183  -0.042690
      2      -0.000029  -0.000082  -0.000095   0.000307  -0.000252  -0.047881
      3       0.001311  -0.001818   0.002899   0.000901   0.000709  -0.000583
      4       0.001662  -0.004969   0.004680   0.001784  -0.002822  -0.003284
      5       0.001318  -0.005308   0.004027   0.001558  -0.000742  -0.001482
      6       0.000537  -0.000068   0.001960   0.000590  -0.000135  -0.000779
      7      -0.004918   0.001914  -0.004909   0.002942  -0.000061  -0.002331
      8       0.001881  -0.000733   0.002883  -0.002928   0.000256   0.000315
      9      -0.002750   0.001629   0.000733  -0.000099  -0.000328   0.413696
     10       0.000776  -0.001318   0.000234   0.001912  -0.001363   0.625550
     11      -0.000848  -0.000685   0.000473   0.002672   0.000165   0.657232
     12       0.002387  -0.006450   0.004486   0.002250   0.061007   0.000014
     13       0.004452   0.001606   0.002831   0.000258  -0.066850   0.000244
     14       0.000959  -0.001635   0.001585   0.000875   0.016921   0.000219
     15       0.012268   0.044813   0.000441   0.001610   0.005778   0.000196
     16       0.000114  -0.008606   0.002299   0.000497   0.000693   0.000172
     17      -0.011449  -0.076556   0.008012  -0.001095  -0.003028   0.000115
     18      -0.010982   0.030417  -0.031659  -0.012547   0.007716   0.007821
     19      -0.020666   0.055912  -0.055311  -0.022097   0.017610   0.016361
     20      -0.018285   0.049274  -0.048930  -0.019631   0.014074   0.013619
     21       0.003758   0.004079   0.064967   0.059869  -0.001560   0.000221
     22      -0.052010   0.007270  -0.022054   0.002587  -0.000036   0.000428
     23       0.067315  -0.010704   0.003206  -0.027985   0.000652   0.000359
     24      -0.007628   0.003252  -0.010056   0.004235   0.000018  -0.001345
     25       0.041354  -0.023617   0.047878  -0.028093   0.002357   0.004368
     26      -0.018217   0.011347  -0.022753   0.014451  -0.001852   0.000139
     27       0.007512  -0.003160  -0.017089   0.017729  -0.000100   0.000100
     28       0.002215  -0.001550  -0.020169   0.020306  -0.000244   0.000260
     29      -0.027637   0.010612   0.053050  -0.057200   0.000299   0.000241
     30      -0.014846   0.008831  -0.015777  -0.005678   0.042502  -0.001908
     31      -0.024129   0.017306  -0.027184  -0.010202   0.029500  -0.000847
     32      -0.023636   0.017180  -0.026844  -0.009979   0.046603   0.001968
     33      -0.022810   0.060756  -0.042859  -0.021169  -0.628246  -0.001239
     34       0.003913  -0.008646   0.006429   0.002979   0.071209   0.000936
     35       0.000466   0.000636   0.000445   0.000026  -0.000846   0.000823
     36       0.008203   0.005118   0.004131  -0.000338  -0.149110   0.000482
     37      -0.033096  -0.027442  -0.013547   0.003815   0.704063  -0.000779
     38       0.012089   0.008293   0.005593  -0.001130  -0.250251  -0.000076
     39       0.007121   0.116401  -0.022127  -0.002039  -0.000845  -0.000957
     40       0.007140   0.186295  -0.039742  -0.004487  -0.003369   0.002008
     41       0.003615   0.140827  -0.031570  -0.003872  -0.004616  -0.001155
     42      -0.050435  -0.297588   0.025268  -0.006541  -0.015429   0.000453
     43      -0.019468  -0.116927   0.010469  -0.002012  -0.006852   0.000300
     44       0.138308   0.800584  -0.065722   0.017527   0.043046  -0.001080
     45      -0.105037  -0.360737  -0.009594  -0.010646  -0.055893   0.000331
     46       0.011713   0.036916   0.002215   0.000988   0.006968  -0.000318
     47      -0.004612  -0.023694   0.001301  -0.000374  -0.002323   0.000716
     48      -0.294086   0.001089  -0.626195  -0.455775   0.012529  -0.001307
     49       0.022012   0.002425   0.071444   0.056465  -0.001596  -0.000150
     50      -0.060231  -0.002645  -0.168378  -0.129337   0.003508  -0.000176
     51       0.330743  -0.062706  -0.141265  -0.288231   0.006949   0.001203
     52       0.017203  -0.004063  -0.020077  -0.026052   0.000577  -0.000489
     53      -0.475546   0.092727   0.232983   0.446362  -0.010882  -0.003006
     54      -0.080646   0.012664  -0.013230   0.022654  -0.000577  -0.000007
     55       0.592412  -0.085370   0.215453  -0.063507   0.001226   0.000299
     56      -0.268413   0.038283  -0.102031   0.022403  -0.000370   0.000182
     57       0.018281  -0.007648  -0.065761   0.067061  -0.000613  -0.000195
     58      -0.087659   0.036959   0.283232  -0.292890   0.002841  -0.000832
     59       0.032946  -0.014369  -0.119705   0.122474  -0.001200   0.000234
     60      -0.145329   0.057060   0.297358  -0.321650   0.001919   0.001215
     61      -0.026231   0.010199   0.049800  -0.054621   0.000253   0.001098
     62       0.225356  -0.088581  -0.458755   0.492894  -0.002783  -0.001007
     63       0.036733  -0.011980  -0.035080   0.042141   0.000004   0.002475
     64       0.089095  -0.029434  -0.087548   0.102590   0.000029  -0.000548
     65       0.071493  -0.023270  -0.061807   0.075234   0.000143  -0.000292


-----------
IR SPECTRUM
-----------

 Mode   freq       eps      Int      T**2         TX        TY        TZ
       cm**-1   L/(mol*cm) km/mol    a.u.
----------------------------------------------------------------------------
  6:     29.73   0.000027    0.13  0.000278  ( 0.015179  0.002415 -0.006478)
  7:    106.99   0.000344    1.74  0.001002  (-0.005768 -0.021635 -0.022376)
  8:    175.73   0.000278    1.40  0.000493  (-0.009271  0.013605 -0.014902)
  9:    221.17   0.000019    0.10  0.000027  ( 0.000960 -0.001907  0.004738)
 10:    225.41   0.000019    0.09  0.000026  ( 0.003083 -0.001512  0.003722)
 11:    238.74   0.000019    0.09  0.000024  ( 0.004861  0.000767  0.000200)
 12:    254.40   0.000131    0.66  0.000161  ( 0.004681  0.006575  0.009802)
 13:    300.25   0.000057    0.29  0.000060  ( 0.000664  0.002895 -0.007132)
 14:    369.04   0.000802    4.05  0.000678  (-0.011265 -0.007465 -0.022262)
 15:    381.41   0.000097    0.49  0.000079  ( 0.002878 -0.000589  0.008416)
 16:    414.79   0.000509    2.57  0.000383  ( 0.015234  0.001626 -0.012176)
 17:    464.63   0.000055    0.28  0.000037  (-0.003924 -0.001633  0.004352)
 18:    483.94   0.003029   15.31  0.001953  ( 0.012529 -0.010852  0.040966)
 19:    734.99   0.017316   87.51  0.007352  ( 0.032806 -0.049795  0.061614)
 20:    824.33   0.002118   10.70  0.000802  ( 0.016812 -0.017065  0.015093)
 21:    841.15   0.008243   41.66  0.003058  ( 0.020130 -0.029153  0.042464)
 22:    910.31   0.000438    2.21  0.000150  (-0.009855 -0.004123  0.006001)
 23:    912.45   0.000153    0.77  0.000052  (-0.001926  0.001948 -0.006702)
 24:    920.40   0.000359    1.82  0.000122  ( 0.006504 -0.002637  0.008522)
 25:    931.23   0.000063    0.32  0.000021  ( 0.000248  0.001508  0.004338)
 26:    945.04   0.000328    1.66  0.000108  ( 0.006524 -0.000410 -0.008103)
 27:   1002.46   0.003809   19.25  0.001186  ( 0.030027 -0.013014 -0.010716)
 28:   1081.85   0.002683   13.56  0.000774  ( 0.022236 -0.015416 -0.006471)
 29:   1109.38   0.001033    5.22  0.000291  ( 0.002600  0.014940 -0.007786)
 30:   1140.50   0.011593   58.59  0.003172  ( 0.031257  0.018012 -0.043251)
 31:   1165.12   0.012429   62.81  0.003329  (-0.051952  0.016777  0.018667)
 32:   1177.91   0.000974    4.92  0.000258  ( 0.011618 -0.008223 -0.007442)
 33:   1195.98   0.000832    4.21  0.000217  ( 0.011881  0.007493  0.004458)
 34:   1318.03   0.000788    3.98  0.000187  ( 0.013251 -0.002779 -0.001814)
 35:   1327.39   0.006459   32.64  0.001519  ( 0.023936 -0.005583 -0.030240)
 36:   1338.55   0.002364   11.95  0.000551  (-0.013313  0.019202 -0.002291)
 37:   1356.59   0.001790    9.05  0.000412  ( 0.005899 -0.016434 -0.010340)
 38:   1376.38   0.001395    7.05  0.000316  (-0.002116 -0.017635 -0.000898)
 39:   1379.67   0.001942    9.82  0.000439  (-0.009378 -0.000298 -0.018743)
 40:   1392.10   0.002209   11.16  0.000495  ( 0.015334 -0.014752 -0.006514)
 41:   1393.00   0.002288   11.56  0.000513  ( 0.010770 -0.015150 -0.012926)
 42:   1452.83   0.002969   15.00  0.000638  (-0.024351 -0.004868  0.004578)
 43:   1469.09   0.000284    1.43  0.000060  ( 0.003147  0.006272  0.003329)
 44:   1471.74   0.000196    0.99  0.000042  (-0.004672 -0.004416 -0.000537)
 45:   1472.91   0.001676    8.47  0.000355  ( 0.002857  0.018494 -0.002236)
 46:   1475.66   0.000684    3.46  0.000145  (-0.002330 -0.001689  0.011677)
 47:   1480.28   0.000771    3.89  0.000162  ( 0.006481 -0.010617 -0.002780)
 48:   1487.96   0.001132    5.72  0.000237  (-0.011046 -0.010732 -0.000404)
 49:   1490.25   0.001595    8.06  0.000334  (-0.014119 -0.006780  0.009422)
 50:   1495.46   0.003881   19.61  0.000810  (-0.021491 -0.000201 -0.018651)
 51:   2897.76   0.021105  106.65  0.002273  (-0.002946 -0.038673  0.027722)
 52:   2983.57   0.008048   40.67  0.000842  (-0.003746  0.022111 -0.018407)
 53:   2986.35   0.006234   31.50  0.000651  ( 0.015002 -0.010908 -0.017532)
 54:   2986.99   0.010390   52.50  0.001085  (-0.026684 -0.008616 -0.017296)
 55:   2993.51   0.001654    8.36  0.000172  ( 0.005864 -0.011697 -0.001107)
 56:   2999.50   0.010733   54.24  0.001117  ( 0.000182  0.027283  0.019295)
 57:   3042.52   0.002367   11.96  0.000243  ( 0.010710 -0.003724  0.010686)
 58:   3047.54   0.011146   56.33  0.001141  ( 0.003819 -0.031217 -0.012339)
 59:   3050.38   0.024877  125.72  0.002545  (-0.035590 -0.033513 -0.012458)
 60:   3055.35   0.005209   26.33  0.000532  ( 0.010900 -0.017355  0.010586)
 61:   3056.80   0.011463   57.93  0.001170  ( 0.013647 -0.001278 -0.031343)
 62:   3061.58   0.012670   64.03  0.001291  ( 0.021362 -0.013280  0.025666)
 63:   3062.85   0.019768   99.90  0.002014  ( 0.031113  0.009698 -0.030855)
 64:   3066.42   0.011435   57.79  0.001164  ( 0.021916 -0.025600  0.005289)
 65:   3392.82   0.000350    1.77  0.000032  (-0.001341 -0.002775 -0.004764)

* The epsilon (eps) is given for a Dirac delta lineshape.
** The dipole moment derivative (T) already includes vibrational overlap.

The first frequency considered to be a vibration is 6
The total number of vibrations considered is 60


--------------------------
THERMOCHEMISTRY AT 298.15K
--------------------------

Temperature         ... 298.15 K
Pressure            ... 1.00 atm
Total Mass          ... 101.19 AMU

Throughout the following assumptions are being made:
  (1) The electronic state is orbitally nondegenerate
  (2) There are no thermally accessible electronically excited states
  (3) Hindered rotations indicated by low frequency modes are not
      treated as such but are treated as vibrations and this may
      cause some error
  (4) All equations used are the standard statistical mechanics
      equations for an ideal gas
  (5) All vibrations are strictly harmonic

freq.      29.73  E(vib)   ...       0.55 
freq.     106.99  E(vib)   ...       0.45 
freq.     175.73  E(vib)   ...       0.38 
freq.     221.17  E(vib)   ...       0.33 
freq.     225.41  E(vib)   ...       0.33 
freq.     238.74  E(vib)   ...       0.32 
freq.     254.40  E(vib)   ...       0.30 
freq.     300.25  E(vib)   ...       0.26 
freq.     369.04  E(vib)   ...       0.21 
freq.     381.41  E(vib)   ...       0.21 
freq.     414.79  E(vib)   ...       0.19 
freq.     464.63  E(vib)   ...       0.16 
freq.     483.94  E(vib)   ...       0.15 
freq.     734.99  E(vib)   ...       0.06 
freq.     824.33  E(vib)   ...       0.04 
freq.     841.15  E(vib)   ...       0.04 
freq.     910.31  E(vib)   ...       0.03 
freq.     912.45  E(vib)   ...       0.03 
freq.     920.40  E(vib)   ...       0.03 
freq.     931.23  E(vib)   ...       0.03 
freq.     945.04  E(vib)   ...       0.03 
freq.    1002.46  E(vib)   ...       0.02 
freq.    1081.85  E(vib)   ...       0.02 
freq.    1109.38  E(vib)   ...       0.02 
freq.    1140.50  E(vib)   ...       0.01 
freq.    1165.12  E(vib)   ...       0.01 
freq.    1177.91  E(vib)   ...       0.01 
freq.    1195.98  E(vib)   ...       0.01 
freq.    1318.03  E(vib)   ...       0.01 
freq.    1327.39  E(vib)   ...       0.01 
freq.    1338.55  E(vib)   ...       0.01 
freq.    1356.59  E(vib)   ...       0.01 
freq.    1376.38  E(vib)   ...       0.01 
freq.    1379.67  E(vib)   ...       0.01 
freq.    1392.10  E(vib)   ...       0.00 
freq.    1393.00  E(vib)   ...       0.00 
freq.    1452.83  E(vib)   ...       0.00 
freq.    1469.09  E(vib)   ...       0.00 
freq.    1471.74  E(vib)   ...       0.00 
freq.    1472.91  E(vib)   ...       0.00 
freq.    1475.66  E(vib)   ...       0.00 
freq.    1480.28  E(vib)   ...       0.00 
freq.    1487.96  E(vib)   ...       0.00 
freq.    1490.25  E(vib)   ...       0.00 
freq.    1495.46  E(vib)   ...       0.00 
freq.    2897.76  E(vib)   ...       0.00 
freq.    2983.57  E(vib)   ...       0.00 
freq.    2986.35  E(vib)   ...       0.00 
freq.    2986.99  E(vib)   ...       0.00 
freq.    2993.51  E(vib)   ...       0.00 
freq.    2999.50  E(vib)   ...       0.00 
freq.    3042.52  E(vib)   ...       0.00 
freq.    3047.54  E(vib)   ...       0.00 
freq.    3050.38  E(vib)   ...       0.00 
freq.    3055.35  E(vib)   ...       0.00 
freq.    3056.80  E(vib)   ...       0.00 
freq.    3061.58  E(vib)   ...       0.00 
freq.    3062.85  E(vib)   ...       0.00 
freq.    3066.42  E(vib)   ...       0.00 
freq.    3392.82  E(vib)   ...       0.00 

------------
INNER ENERGY
------------

The inner energy is: U= E(el) + E(ZPE) + E(vib) + E(rot) + E(trans)
    E(el)   - is the total energy from the electronic structure calculation
              = E(kin-el) + E(nuc-el) + E(el-el) + E(nuc-nuc)
    E(ZPE)  - the the zero temperature vibrational energy from the frequency calculation
    E(vib)  - the the finite temperature correction to E(ZPE) due to population
              of excited vibrational states
    E(rot)  - is the rotational thermal energy
    E(trans)- is the translational thermal energy

Summary of contributions to the inner energy U:
Electronic energy                ...   -292.60435614 Eh
Zero point energy                ...      0.20143803 Eh     126.40 kcal/mol
Thermal vibrational correction   ...      0.00687180 Eh       4.31 kcal/mol
Thermal rotational correction    ...      0.00141627 Eh       0.89 kcal/mol
Thermal translational correction ...      0.00141627 Eh       0.89 kcal/mol
-----------------------------------------------------------------------
Total thermal energy                   -292.39321376 Eh


Summary of corrections to the electronic energy:
(perhaps to be used in another calculation)
Total thermal correction                  0.00970434 Eh       6.09 kcal/mol
Non-thermal (ZPE) correction              0.20143803 Eh     126.40 kcal/mol
-----------------------------------------------------------------------
Total correction                          0.21114238 Eh     132.49 kcal/mol


--------
ENTHALPY
--------

The enthalpy is H = U + kB*T
                kB is Boltzmann's constant
Total free energy                 ...   -292.39321376 Eh 
Thermal Enthalpy correction       ...      0.00094421 Eh       0.59 kcal/mol
-----------------------------------------------------------------------
Total Enthalpy                    ...   -292.39226955 Eh


Note: Only C1 symmetry has been detected, increase convergence thresholds 
      if your molecule has a higher symmetry. Symmetry factor of 1.0 is   
      used for the rotational entropy correction. 
 

Note: Rotational entropy computed according to Herzberg 
Infrared and Raman Spectra, Chapter V,1, Van Nostrand Reinhold, 1945 
Point Group:  C1, Symmetry Number:   1  
Rotational constants in cm-1:     0.137357     0.048036     0.045382 

Vibrational entropy computed according to the QRRHO of S. Grimme
Chem.Eur.J. 2012 18 9955


-------
ENTROPY
-------

The entropy contributions are T*S = T*(S(el)+S(vib)+S(rot)+S(trans))
     S(el)   - electronic entropy
     S(vib)  - vibrational entropy
     S(rot)  - rotational entropy
     S(trans)- translational entropy
The entropies will be listed as multiplied by the temperature to get
units of energy

Electronic entropy                ...      0.00000000 Eh      0.00 kcal/mol
Vibrational entropy               ...      0.01178408 Eh      7.39 kcal/mol
Rotational entropy                ...      0.01334117 Eh      8.37 kcal/mol
Translational entropy             ...      0.01888804 Eh     11.85 kcal/mol
-----------------------------------------------------------------------
Final entropy term                ...      0.04401329 Eh     27.62 kcal/mol

In case the symmetry of your molecule has not been determined correctly
or in case you have a reason to use a different symmetry number we print 
out the resulting rotational entropy values for sn=1,12 :
 --------------------------------------------------------
|  sn= 1 | S(rot)=       0.01334117 Eh      8.37 kcal/mol|
|  sn= 2 | S(rot)=       0.01268672 Eh      7.96 kcal/mol|
|  sn= 3 | S(rot)=       0.01230389 Eh      7.72 kcal/mol|
|  sn= 4 | S(rot)=       0.01203226 Eh      7.55 kcal/mol|
|  sn= 5 | S(rot)=       0.01182157 Eh      7.42 kcal/mol|
|  sn= 6 | S(rot)=       0.01164943 Eh      7.31 kcal/mol|
|  sn= 7 | S(rot)=       0.01150388 Eh      7.22 kcal/mol|
|  sn= 8 | S(rot)=       0.01137781 Eh      7.14 kcal/mol|
|  sn= 9 | S(rot)=       0.01126660 Eh      7.07 kcal/mol|
|  sn=10 | S(rot)=       0.01116712 Eh      7.01 kcal/mol|
|  sn=11 | S(rot)=       0.01107713 Eh      6.95 kcal/mol|
|  sn=12 | S(rot)=       0.01099497 Eh      6.90 kcal/mol|
 --------------------------------------------------------


-------------------
GIBBS FREE ENERGY
-------------------

The Gibbs free energy is G = H - T*S

Total enthalpy                    ...   -292.39226955 Eh 
Total entropy correction          ...     -0.04401329 Eh    -27.62 kcal/mol
-----------------------------------------------------------------------
Final Gibbs free energy         ...   -292.43628284 Eh

For completeness - the Gibbs free energy minus the electronic energy
G-E(el)                           ...      0.16807330 Eh    105.47 kcal/mol



Timings for individual modules:

Sum of individual times         ...     5759.353 sec (=  95.989 min)
GTO integral calculation        ...       17.870 sec (=   0.298 min)   0.3 %
SCF iterations                  ...      530.864 sec (=   8.848 min)   9.2 %
SCF Gradient evaluation         ...      258.832 sec (=   4.314 min)   4.5 %
Geometry relaxation             ...        9.113 sec (=   0.152 min)   0.2 %
Numerical frequency calculation ...     4942.674 sec (=  82.378 min)  85.8 %
                             ****ORCA TERMINATED NORMALLY****
TOTAL RUN TIME: 0 days 1 hours 35 minutes 37 seconds 33 msec
‘DiPA_freqopt.cpcm’ -> ‘/home/rothe/Calc/Li_Path/THF/DiPA/DiPA_freqopt.cpcm’
‘DiPA_freqopt.densities’ -> ‘/home/rothe/Calc/Li_Path/THF/DiPA/DiPA_freqopt.densities’
‘DiPA_freqopt.engrad’ -> ‘/home/rothe/Calc/Li_Path/THF/DiPA/DiPA_freqopt.engrad’
‘DiPA_freqopt.gbw’ -> ‘/home/rothe/Calc/Li_Path/THF/DiPA/DiPA_freqopt.gbw’
‘DiPA_freqopt.hess’ -> ‘/home/rothe/Calc/Li_Path/THF/DiPA/DiPA_freqopt.hess’
‘DiPA_freqopt.job’ -> ‘/home/rothe/Calc/Li_Path/THF/DiPA/DiPA_freqopt.job’
‘DiPA_freqopt.opt’ -> ‘/home/rothe/Calc/Li_Path/THF/DiPA/DiPA_freqopt.opt’
‘DiPA_freqopt_property.txt’ -> ‘/home/rothe/Calc/Li_Path/THF/DiPA/DiPA_freqopt_property.txt’
‘DiPA_freqopt_trj.xyz’ -> ‘/home/rothe/Calc/Li_Path/THF/DiPA/DiPA_freqopt_trj.xyz’
‘DiPA_freqopt.xyz’ -> ‘/home/rothe/Calc/Li_Path/THF/DiPA/DiPA_freqopt.xyz’
