! Job execution by suborca V 5.02 !
Job started from clu.thch.uni-bonn.de, running /software/cluster/orca_5_0_2_linux_x86-64_openmpi411/orca from /software/cluster/orca_5_0_2_linux_x86-64_openmpi411 on boar231 in /tmp1/rothe/DiPA_sp__KGnShY
Going to copy the following really necessary files:  

                                 *****************
                                 * O   R   C   A *
                                 *****************

                                            #,                                       
                                            ###                                      
                                            ####                                     
                                            #####                                    
                                            ######                                   
                                           ########,                                 
                                     ,,################,,,,,                         
                               ,,#################################,,                 
                          ,,##########################################,,             
                       ,#########################################, ''#####,          
                    ,#############################################,,   '####,        
                  ,##################################################,,,,####,       
                ,###########''''           ''''###############################       
              ,#####''   ,,,,##########,,,,          '''####'''          '####       
            ,##' ,,,,###########################,,,                        '##       
           ' ,,###''''                  '''############,,,                           
         ,,##''                                '''############,,,,        ,,,,,,###''
      ,#''                                            '''#######################'''  
     '                                                          ''''####''''         
             ,#######,   #######,   ,#######,      ##                                
            ,#'     '#,  ##    ##  ,#'     '#,    #''#        ######   ,####,        
            ##       ##  ##   ,#'  ##            #'  '#       #        #'  '#        
            ##       ##  #######   ##           ,######,      #####,   #    #        
            '#,     ,#'  ##    ##  '#,     ,#' ,#      #,         ##   #,  ,#        
             '#######'   ##     ##  '#######'  #'      '#     #####' # '####'        



                  #######################################################
                  #                        -***-                        #
                  #          Department of theory and spectroscopy      #
                  #    Directorship and core code : Frank Neese         #
                  #        Max Planck Institute fuer Kohlenforschung    #
                  #                Kaiser Wilhelm Platz 1               #
                  #                 D-45470 Muelheim/Ruhr               #
                  #                      Germany                        #
                  #                                                     #
                  #                  All rights reserved                #
                  #                        -***-                        #
                  #######################################################


                         Program Version 5.0.2 -  RELEASE  -


 With contributions from (in alphabetic order):
   Daniel Aravena         : Magnetic Suceptibility
   Michael Atanasov       : Ab Initio Ligand Field Theory (pilot matlab implementation)
   Alexander A. Auer      : GIAO ZORA, VPT2 properties, NMR spectrum
   Ute Becker             : Parallelization
   Giovanni Bistoni       : ED, misc. LED, open-shell LED, HFLD
   Martin Brehm           : Molecular dynamics
   Dmytro Bykov           : SCF Hessian
   Vijay G. Chilkuri      : MRCI spin determinant printing, contributions to CSF-ICE
   Dipayan Datta          : RHF DLPNO-CCSD density
   Achintya Kumar Dutta   : EOM-CC, STEOM-CC
   Dmitry Ganyushin       : Spin-Orbit,Spin-Spin,Magnetic field MRCI
   Miquel Garcia          : C-PCM and meta-GGA Hessian, CC/C-PCM, Gaussian charge scheme
   Yang Guo               : DLPNO-NEVPT2, F12-NEVPT2, CIM, IAO-localization
   Andreas Hansen         : Spin unrestricted coupled pair/coupled cluster methods
   Benjamin Helmich-Paris : MC-RPA, TRAH-SCF, COSX integrals
   Lee Huntington         : MR-EOM, pCC
   Robert Izsak           : Overlap fitted RIJCOSX, COSX-SCS-MP3, EOM
   Marcus Kettner         : VPT2
   Christian Kollmar      : KDIIS, OOCD, Brueckner-CCSD(T), CCSD density, CASPT2, CASPT2-K
   Simone Kossmann        : Meta GGA functionals, TD-DFT gradient, OOMP2, MP2 Hessian
   Martin Krupicka        : Initial AUTO-CI
   Lucas Lang             : DCDCAS
   Marvin Lechner         : AUTO-CI (C++ implementation), FIC-MRCC
   Dagmar Lenk            : GEPOL surface, SMD
   Dimitrios Liakos       : Extrapolation schemes; Compound Job, initial MDCI parallelization
   Dimitrios Manganas     : Further ROCIS development; embedding schemes
   Dimitrios Pantazis     : SARC Basis sets
   Anastasios Papadopoulos: AUTO-CI, single reference methods and gradients
   Taras Petrenko         : DFT Hessian,TD-DFT gradient, ASA, ECA, R-Raman, ABS, FL, XAS/XES, NRVS
   Peter Pinski           : DLPNO-MP2, DLPNO-MP2 Gradient
   Christoph Reimann      : Effective Core Potentials
   Marius Retegan         : Local ZFS, SOC
   Christoph Riplinger    : Optimizer, TS searches, QM/MM, DLPNO-CCSD(T), (RO)-DLPNO pert. Triples
   Tobias Risthaus        : Range-separated hybrids, TD-DFT gradient, RPA, STAB
   Michael Roemelt        : Original ROCIS implementation
   Masaaki Saitow         : Open-shell DLPNO-CCSD energy and density
   Barbara Sandhoefer     : DKH picture change effects
   Avijit Sen             : IP-ROCIS
   Kantharuban Sivalingam : CASSCF convergence, NEVPT2, FIC-MRCI
   Bernardo de Souza      : ESD, SOC TD-DFT
   Georgi Stoychev        : AutoAux, RI-MP2 NMR, DLPNO-MP2 response
   Willem Van den Heuvel  : Paramagnetic NMR
   Boris Wezisla          : Elementary symmetry handling
   Frank Wennmohs         : Technical directorship


 We gratefully acknowledge several colleagues who have allowed us to
 interface, adapt or use parts of their codes:
   Stefan Grimme, W. Hujo, H. Kruse, P. Pracht,  : VdW corrections, initial TS optimization,
                  C. Bannwarth, S. Ehlert          DFT functionals, gCP, sTDA/sTD-DF
   Ed Valeev, F. Pavosevic, A. Kumar             : LibInt (2-el integral package), F12 methods
   Garnet Chan, S. Sharma, J. Yang, R. Olivares  : DMRG
   Ulf Ekstrom                                   : XCFun DFT Library
   Mihaly Kallay                                 : mrcc  (arbitrary order and MRCC methods)
   Jiri Pittner, Ondrej Demel                    : Mk-CCSD
   Frank Weinhold                                : gennbo (NPA and NBO analysis)
   Christopher J. Cramer and Donald G. Truhlar   : smd solvation model
   Lars Goerigk                                  : TD-DFT with DH, B97 family of functionals
   V. Asgeirsson, H. Jonsson                     : NEB implementation
   FAccTs GmbH                                   : IRC, NEB, NEB-TS, DLPNO-Multilevel, CI-OPT
                                                   MM, QMMM, 2- and 3-layer-ONIOM, Crystal-QMMM,
                                                   LR-CPCM, SF, NACMEs, symmetry and pop. for TD-DFT,
                                                   nearIR, NL-DFT gradient (VV10), updates on ESD,
                                                   ML-optimized integration grids
   S Lehtola, MJT Oliveira, MAL Marques          : LibXC Library
   Liviu Ungur et al                             : ANISO software


 Your calculation uses the libint2 library for the computation of 2-el integrals
 For citations please refer to: http://libint.valeyev.net

 Your ORCA version has been built with support for libXC version: 5.1.0
 For citations please refer to: https://tddft.org/programs/libxc/

 This ORCA versions uses:
   CBLAS   interface :  Fast vector & matrix operations
   LAPACKE interface :  Fast linear algebra routines
   SCALAPACK package :  Parallel linear algebra routines
   Shared memory     :  Shared parallel matrices
   BLAS/LAPACK       :  OpenBLAS 0.3.15  USE64BITINT DYNAMIC_ARCH NO_AFFINITY Barcelona SINGLE_THREADED
        Core in use  :  Barcelona
   Copyright (c) 2011-2014, The OpenBLAS Project


Your calculation utilizes the atom-pairwise dispersion correction
with the Becke-Johnson damping scheme (D3BJ)
Cite in your paper:
S.Grimme, S.Ehrlich, L.Goerigk, J Comput Chem, (2011), 32, 1456–1465 
S.Grimme, J.Antony, S.Ehrlich and H.Krieg, J.Chem.Phys., 132, (2010), 154104 
   

================================================================================

----- Orbital basis set information -----
Your calculation utilizes the basis: def2-QZVP
   F. Weigend and R. Ahlrichs, Phys. Chem. Chem. Phys. 7, 3297 (2005).

----- AuxJK basis set information -----
Your calculation utilizes the auxiliary basis: def2/JK
   H-Ba, Hf-Rn: F. Weigend, J. Comput. Chem. 29, 167 (2008).

================================================================================
                                        WARNINGS
                       Please study these warnings very carefully!
================================================================================


INFO   : the flag for use of the SHARK integral package has been found!

================================================================================
                                       INPUT FILE
================================================================================
NAME = DiPA_sp.inp
|  1> ! PW6B95 D3BJ def2-QZVP RIJK def2/JK tightSCF CPCM(THF)
|  2> ! sp Pal4
|  3> 
|  4> * xyz 0 1
|  5>   N   -3.64831299155467     -1.91653970228591     -0.96978025551186
|  6>   C   -2.19547949101286     -2.19150366807883     -0.91737607775784
|  7>   C   -4.39203297300550     -2.02606804889088      0.30216287906824
|  8>   H   -4.06465227678161     -2.57345649753033     -1.63360890268795
|  9>   C   -1.62646658604898     -1.98936944142639     -2.32348866564902
| 10>   C   -1.82964658667418     -3.58408012747822     -0.37727532850084
| 11>   H   -1.75377116499963     -1.43599149690000     -0.25636984758823
| 12>   C   -3.94596440578179     -0.93618718560648      1.27961000376150
| 13>   H   -4.22775365921330     -3.00576723938650      0.78449531088715
| 14>   C   -5.88400621439720     -1.90431653799069     -0.01292348752386
| 15>   H   -2.06655723448055     -2.71502868041604     -3.01975568798743
| 16>   H   -0.54086806951153     -2.13306171541689     -2.32804745583680
| 17>   H   -1.85069123257232     -0.98263554799586     -2.68998315521881
| 18>   H   -2.25423799748349     -4.36441849122119     -1.02159221972811
| 19>   H   -2.20524230421919     -3.73772137871048      0.63961352294554
| 20>   H   -0.74140163830100     -3.71310353674875     -0.35583101074491
| 21>   H   -2.89553856565558     -1.05058816500658      1.56560841148406
| 22>   H   -4.54868580911136     -0.98265636491596      2.19292167651089
| 23>   H   -4.07422160759139      0.05337741631701      0.82541259063916
| 24>   H   -6.10063682695167     -0.92764190544136     -0.46100776757572
| 25>   H   -6.48023003040399     -2.01013583706624      0.89941762825976
| 26>   H   -6.19748296514888     -2.68334166360376     -0.71829987924518
| 27> *
| 28> 
| 29>                          ****END OF INPUT****
================================================================================

                       ****************************
                       * Single Point Calculation *
                       ****************************

---------------------------------
CARTESIAN COORDINATES (ANGSTROEM)
---------------------------------
  N     -3.648313   -1.916540   -0.969780
  C     -2.195479   -2.191504   -0.917376
  C     -4.392033   -2.026068    0.302163
  H     -4.064652   -2.573456   -1.633609
  C     -1.626467   -1.989369   -2.323489
  C     -1.829647   -3.584080   -0.377275
  H     -1.753771   -1.435991   -0.256370
  C     -3.945964   -0.936187    1.279610
  H     -4.227754   -3.005767    0.784495
  C     -5.884006   -1.904317   -0.012923
  H     -2.066557   -2.715029   -3.019756
  H     -0.540868   -2.133062   -2.328047
  H     -1.850691   -0.982636   -2.689983
  H     -2.254238   -4.364418   -1.021592
  H     -2.205242   -3.737721    0.639614
  H     -0.741402   -3.713104   -0.355831
  H     -2.895539   -1.050588    1.565608
  H     -4.548686   -0.982656    2.192922
  H     -4.074222    0.053377    0.825413
  H     -6.100637   -0.927642   -0.461008
  H     -6.480230   -2.010136    0.899418
  H     -6.197483   -2.683342   -0.718300

----------------------------
CARTESIAN COORDINATES (A.U.)
----------------------------
  NO LB      ZA    FRAG     MASS         X           Y           Z
   0 N     7.0000    0    14.007   -6.894312   -3.621735   -1.832619
   1 C     6.0000    0    12.011   -4.148855   -4.141342   -1.733590
   2 C     6.0000    0    12.011   -8.299739   -3.828714    0.571005
   3 H     1.0000    0     1.008   -7.681080   -4.863128   -3.087073
   4 C     6.0000    0    12.011   -3.073576   -3.759363   -4.390757
   5 C     6.0000    0    12.011   -3.457531   -6.772930   -0.712947
   6 H     1.0000    0     1.008   -3.314147   -2.713631   -0.484469
   7 C     6.0000    0    12.011   -7.456792   -1.769137    2.418112
   8 H     1.0000    0     1.008   -7.989297   -5.680077    1.482481
   9 C     6.0000    0    12.011  -11.119160   -3.598637   -0.024422
  10 H     1.0000    0     1.008   -3.905227   -5.130661   -5.706511
  11 H     1.0000    0     1.008   -1.022093   -4.030902   -4.399372
  12 H     1.0000    0     1.008   -3.497300   -1.856912   -5.083331
  13 H     1.0000    0     1.008   -4.259892   -8.247556   -1.930530
  14 H     1.0000    0     1.008   -4.167304   -7.063270    1.208694
  15 H     1.0000    0     1.008   -1.401046   -7.016749   -0.672423
  16 H     1.0000    0     1.008   -5.471775   -1.985324    2.958571
  17 H     1.0000    0     1.008   -8.595770   -1.856951    4.144021
  18 H     1.0000    0     1.008   -7.699163    0.100869    1.559804
  19 H     1.0000    0     1.008  -11.528533   -1.752989   -0.871178
  20 H     1.0000    0     1.008  -12.245860   -3.798606    1.699653
  21 H     1.0000    0     1.008  -11.711546   -5.070781   -1.357390

--------------------------------
INTERNAL COORDINATES (ANGSTROEM)
--------------------------------
 N      0   0   0     0.000000000000     0.00000000     0.00000000
 C      1   0   0     1.479552824548     0.00000000     0.00000000
 C      1   2   0     1.477482726506   116.74437772     0.00000000
 H      1   2   3     1.022519705976   107.66293424   238.63845465
 C      2   1   3     1.530289691995   107.94030440   181.32765495
 C      2   1   3     1.537794436366   114.47720337    57.54207798
 H      2   1   3     1.096737946089   106.78609187   297.51816466
 C      3   1   2     1.530431424269   110.50676798    66.45535448
 H      3   1   2     1.104283827457   111.52482241   306.27652477
 C      3   1   2     1.529734291257   107.92209191   188.05362812
 H      5   2   1     1.097747182353   110.26817536   296.62668503
 H      5   2   1     1.095076431707   110.80007252   177.18365843
 H      5   2   1     1.094581214518   110.66934201    56.39490373
 H      6   2   1     1.097428851627   110.22254454    61.17311864
 H      6   2   1     1.094870181033   111.81861234   300.73956327
 H      6   2   1     1.096076624403   110.46676593   180.66439092
 H      8   3   1     1.094658448518   111.84695009   295.97219563
 H      8   3   1     1.095249143454   109.99699884   176.20598663
 H      8   3   1     1.096349990324   110.12616187    56.51411996
 H     10   3   1     1.096175935783   110.35619250   298.49037653
 H     10   3   1     1.095009988256   110.59412278   178.29291394
 H     10   3   1     1.096678473207   110.77694929    58.38537814

---------------------------
INTERNAL COORDINATES (A.U.)
---------------------------
 N      0   0   0     0.000000000000     0.00000000     0.00000000
 C      1   0   0     2.795949639065     0.00000000     0.00000000
 C      1   2   0     2.792037720696   116.74437772     0.00000000
 H      1   2   3     1.932282210832   107.66293424   238.63845465
 C      2   1   3     2.891828423433   107.94030440   181.32765495
 C      2   1   3     2.906010335000   114.47720337    57.54207798
 H      2   1   3     2.072534358788   106.78609187   297.51816466
 C      3   1   2     2.892096258615   110.50676798    66.45535448
 H      3   1   2     2.086794008011   111.52482241   306.27652477
 C      3   1   2     2.890778868144   107.92209191   188.05362812
 H      5   2   1     2.074441538931   110.26817536   296.62668503
 H      5   2   1     2.069394551639   110.80007252   177.18365843
 H      5   2   1     2.068458726774   110.66934201    56.39490373
 H      6   2   1     2.073839981038   110.22254454    61.17311864
 H      6   2   1     2.069004794348   111.81861234   300.73956327
 H      6   2   1     2.071284641915   110.46676593   180.66439092
 H      8   3   1     2.068604677883   111.84695009   295.97219563
 H      8   3   1     2.069720929541   109.99699884   176.20598663
 H      8   3   1     2.071801228639   110.12616187    56.51411996
 H     10   3   1     2.071472313226   110.35619250   298.49037653
 H     10   3   1     2.069268991712   110.59412278   178.29291394
 H     10   3   1     2.072421971329   110.77694929    58.38537814

---------------------
BASIS SET INFORMATION
---------------------
There are 3 groups of distinct atoms

 Group   1 Type N   : 15s8p3d2f1g contracted to 7s4p3d2f1g pattern {8211111/5111/111/11/1}
 Group   2 Type C   : 15s8p3d2f1g contracted to 7s4p3d2f1g pattern {8211111/5111/111/11/1}
 Group   3 Type H   : 7s3p2d1f contracted to 4s3p2d1f pattern {4111/111/11/1}

Atom   0N    basis set group =>   1
Atom   1C    basis set group =>   2
Atom   2C    basis set group =>   2
Atom   3H    basis set group =>   3
Atom   4C    basis set group =>   2
Atom   5C    basis set group =>   2
Atom   6H    basis set group =>   3
Atom   7C    basis set group =>   2
Atom   8H    basis set group =>   3
Atom   9C    basis set group =>   2
Atom  10H    basis set group =>   3
Atom  11H    basis set group =>   3
Atom  12H    basis set group =>   3
Atom  13H    basis set group =>   3
Atom  14H    basis set group =>   3
Atom  15H    basis set group =>   3
Atom  16H    basis set group =>   3
Atom  17H    basis set group =>   3
Atom  18H    basis set group =>   3
Atom  19H    basis set group =>   3
Atom  20H    basis set group =>   3
Atom  21H    basis set group =>   3
----------------------------------
AUXILIARY/JK BASIS SET INFORMATION
----------------------------------
There are 3 groups of distinct atoms

 Group   1 Type N   : 14s10p6d2f1g contracted to 10s8p4d2f1g pattern {5111111111/31111111/3111/11/1}
 Group   2 Type C   : 14s10p6d2f1g contracted to 10s8p5d1f1g pattern {5111111111/31111111/21111/2/1}
 Group   3 Type H   : 4s2p2d contracted to 2s2p2d pattern {31/11/11}

Atom   0N    basis set group =>   1
Atom   1C    basis set group =>   2
Atom   2C    basis set group =>   2
Atom   3H    basis set group =>   3
Atom   4C    basis set group =>   2
Atom   5C    basis set group =>   2
Atom   6H    basis set group =>   3
Atom   7C    basis set group =>   2
Atom   8H    basis set group =>   3
Atom   9C    basis set group =>   2
Atom  10H    basis set group =>   3
Atom  11H    basis set group =>   3
Atom  12H    basis set group =>   3
Atom  13H    basis set group =>   3
Atom  14H    basis set group =>   3
Atom  15H    basis set group =>   3
Atom  16H    basis set group =>   3
Atom  17H    basis set group =>   3
Atom  18H    basis set group =>   3
Atom  19H    basis set group =>   3
Atom  20H    basis set group =>   3
Atom  21H    basis set group =>   3


           ************************************************************
           *        Program running with 4 parallel MPI-processes     *
           *              working on a common directory               *
           ************************************************************
------------------------------------------------------------------------------
                           ORCA GTO INTEGRAL CALCULATION
                           -- RI-GTO INTEGRALS CHOSEN --
------------------------------------------------------------------------------
------------------------------------------------------------------------------
                   ___                                                        
                  /   \      - P O W E R E D   B Y -                         
                 /     \                                                     
                 |  |  |   _    _      __       _____    __    __             
                 |  |  |  | |  | |    /  \     |  _  \  |  |  /  |          
                  \  \/   | |  | |   /    \    | | | |  |  | /  /          
                 / \  \   | |__| |  /  /\  \   | |_| |  |  |/  /          
                |  |  |   |  __  | /  /__\  \  |    /   |      \           
                |  |  |   | |  | | |   __   |  |    \   |  |\   \          
                \     /   | |  | | |  |  |  |  | |\  \  |  | \   \       
                 \___/    |_|  |_| |__|  |__|  |_| \__\ |__|  \__/        
                                                                              
                      - O R C A' S   B I G   F R I E N D -                    
                                      &                                       
                       - I N T E G R A L  F E E D E R -                       
                                                                              
 v1 FN, 2020, v2 2021                                                         
------------------------------------------------------------------------------


Reading SHARK input file DiPA_sp.SHARKINP.tmp ... ok
----------------------
SHARK INTEGRAL PACKAGE
----------------------

Number of atoms                             ...     22
Number of basis functions                   ...    849
Number of shells                            ...    269
Maximum angular momentum                    ...      4
Integral batch strategy                     ... SHARK/LIBINT Hybrid
RI-J (if used) integral strategy            ... SPLIT-RIJ (Revised 2003 algorithm where possible)
Printlevel                                  ...      1
Contraction scheme used                     ... SEGMENTED contraction
Coulomb Range Separation                    ... NOT USED
Exchange Range Separation                   ... NOT USED
Finite Nucleus Model                        ... NOT USED
Auxiliary Coulomb fitting basis             ... NOT available
Auxiliary J/K fitting basis                 ... AVAILABLE
   # of basis functions in Aux-JK           ...    797
   # of shells in Aux-JK                    ...    265
   Maximum angular momentum in Aux-JK       ...      4
Auxiliary Correlation fitting basis         ... NOT available
Auxiliary 'external' fitting basis          ... NOT available
Integral threshold                          ...     2.500000e-11
Primitive cut-off                           ...     2.500000e-12
Primitive pair pre-selection threshold      ...     2.500000e-12

Calculating pre-screening integrals         ... done (  0.6 sec) Dimension = 269
Organizing shell pair data                  ... done (  1.2 sec)
Shell pair information
Total number of shell pairs                 ...     36315
Shell pairs after pre-screening             ...     30393
Total number of primitive shell pairs       ...     79764
Primitive shell pairs kept                  ...     52122
          la=0 lb=0:   4985 shell pairs
          la=1 lb=0:   6810 shell pairs
          la=1 lb=1:   2377 shell pairs
          la=2 lb=0:   4523 shell pairs
          la=2 lb=1:   3140 shell pairs
          la=2 lb=2:   1062 shell pairs
          la=3 lb=0:   2561 shell pairs
          la=3 lb=1:   1785 shell pairs
          la=3 lb=2:   1170 shell pairs
          la=3 lb=3:    349 shell pairs
          la=4 lb=0:    665 shell pairs
          la=4 lb=1:    454 shell pairs
          la=4 lb=2:    310 shell pairs
          la=4 lb=3:    175 shell pairs
          la=4 lb=4:     27 shell pairs

Calculating one electron integrals          ... done (  0.2 sec)
Calculating RI/JK V-Matrix + Cholesky decomp... done (  0.1 sec)
Calculating Nuclear repulsion               ... done (  0.0 sec) ENN=    335.072764766770 Eh

SHARK setup successfully completed in   3.7 seconds

Maximum memory used throughout the entire GTOINT-calculation: 55.3 MB


           ************************************************************
           *        Program running with 4 parallel MPI-processes     *
           *              working on a common directory               *
           ************************************************************
-------------------------------------------------------------------------------
                                 ORCA SCF
-------------------------------------------------------------------------------

------------
SCF SETTINGS
------------
Hamiltonian:
 Density Functional     Method          .... DFT(GTOs)
 Exchange Functional    Exchange        .... PW6
 Correlation Functional Correlation     .... B95
 Gradients option       PostSCFGGA      .... off
 Hybrid DFT is turned on
   Fraction HF Exchange ScalHFX         ....  0.280000
   Scaling of DF-GGA-X  ScalDFX         ....  0.720000
   Scaling of DF-GGA-C  ScalDFC         ....  1.000000
   Scaling of DF-LDA-C  ScalLDAC        ....  1.000000
   Perturbative correction              ....  0.000000
   Density functional embedding theory  .... OFF
   NL short-range parameter             ....  9.000000
 RI-approximation to the Coulomb term is turned on
   Number of AuxJK basis functions      .... 797
   RI-JK (J+K treated both via RI)      .... on


General Settings:
 Integral files         IntName         .... DiPA_sp
 Hartree-Fock type      HFTyp           .... RHF
 Total Charge           Charge          ....    0
 Multiplicity           Mult            ....    1
 Number of Electrons    NEL             ....   58
 Basis Dimension        Dim             ....  849
 Nuclear Repulsion      ENuc            ....    335.0727647668 Eh

Convergence Acceleration:
 DIIS                   CNVDIIS         .... on
   Start iteration      DIISMaxIt       ....    12
   Startup error        DIISStart       ....  0.200000
   # of expansion vecs  DIISMaxEq       ....     5
   Bias factor          DIISBfac        ....   1.050
   Max. coefficient     DIISMaxC        ....  10.000
 Trust-Rad. Augm. Hess. CNVTRAH         .... auto
   Auto Start mean grad. ratio tolernc. ....  1.125000
   Auto Start start iteration           ....    20
   Auto Start num. interpolation iter.  ....    10
   Max. Number of Micro iterations      ....    16
   Max. Number of Macro iterations      .... Maxiter - #DIIS iter
   Number of Davidson start vectors     ....     2
   Converg. threshold I  (grad. norm)   ....   1.000e-05
   Converg. threshold II (energy diff.) ....   1.000e-08
   Grad. Scal. Fac. for Micro threshold ....   0.100
   Minimum threshold for Micro iter.    ....   0.010
   NR start threshold (gradient norm)   ....   0.001
   Initial trust radius                 ....   0.400
   Minimum AH scaling param. (alpha)    ....   1.000
   Maximum AH scaling param. (alpha)    .... 1000.000
   Orbital update algorithm             .... Taylor
   White noise on init. David. guess    .... on
   Maximum white noise                  ....   0.010
   Quad. conv. algorithm                .... NR
 SOSCF                  CNVSOSCF        .... on
   Start iteration      SOSCFMaxIt      ....   150
   Startup grad/error   SOSCFStart      ....  0.003300
 Level Shifting         CNVShift        .... on
   Level shift para.    LevelShift      ....    0.2500
   Turn off err/grad.   ShiftErr        ....    0.0010
 Zerner damping         CNVZerner       .... off
 Static damping         CNVDamp         .... on
   Fraction old density DampFac         ....    0.7000
   Max. Damping (<1)    DampMax         ....    0.9800
   Min. Damping (>=0)   DampMin         ....    0.0000
   Turn off err/grad.   DampErr         ....    0.1000
 Fernandez-Rico         CNVRico         .... off

SCF Procedure:
 Maximum # iterations   MaxIter         ....   125
 SCF integral mode      SCFMode         .... Direct
   Integral package                     .... SHARK and LIBINT hybrid scheme
 Reset frequency        DirectResetFreq ....    20
 Integral Threshold     Thresh          ....  2.500e-11 Eh
 Primitive CutOff       TCut            ....  2.500e-12 Eh

Convergence Tolerance:
 Convergence Check Mode ConvCheckMode   .... Total+1el-Energy
 Convergence forced     ConvForced      .... 0
 Energy Change          TolE            ....  1.000e-08 Eh
 1-El. energy change                    ....  1.000e-05 Eh
 Orbital Gradient       TolG            ....  1.000e-05
 Orbital Rotation angle TolX            ....  1.000e-05
 DIIS Error             TolErr          ....  5.000e-07


Diagonalization of the overlap matrix:
Smallest eigenvalue                        ... 3.015e-05
Time for diagonalization                   ...    0.584 sec
Threshold for overlap eigenvalues          ... 1.000e-08
Number of eigenvalues below threshold      ... 0
Time for construction of square roots      ...    0.374 sec
Total time needed                          ...    0.965 sec

Time for model grid setup =    0.917 sec

------------------------------
INITIAL GUESS: MODEL POTENTIAL
------------------------------
Loading Hartree-Fock densities                     ... done
Calculating cut-offs                               ... done
Initializing the effective Hamiltonian             ... done
Setting up the integral package (SHARK)            ... done
Starting the Coulomb interaction                   ... done (   1.3 sec)
Reading the grid                                   ... done
Mapping shells                                     ... done
Starting the XC term evaluation                    ... done (   1.7 sec)
  promolecular density results
     # of electrons  =     57.987562714
     EX              =    -42.552087061
     EC              =     -3.534823732
     EX+EC           =    -46.086910793
Transforming the Hamiltonian                       ... done (   0.3 sec)
Diagonalizing the Hamiltonian                      ... done (   0.6 sec)
Back transforming the eigenvectors                 ... done (   0.1 sec)
Now organizing SCF variables                       ... done
                      ------------------
                      INITIAL GUESS DONE (   5.1 sec)
                      ------------------
-------------------
DFT GRID GENERATION
-------------------

General Integration Accuracy     IntAcc      ... 4.388
Radial Grid Type                 RadialGrid  ... OptM3 with GC (2021)
Angular Grid (max. ang.)         AngularGrid ... 4 (Lebedev-302)
Angular grid pruning method      GridPruning ... 4 (adaptive)
Weight generation scheme         WeightScheme... Becke
Basis function cutoff            BFCut       ... 1.0000e-11
Integration weight cutoff        WCut        ... 1.0000e-14
Angular grids for H and He will be reduced by one unit
Partially contracted basis set               ... off
Rotationally invariant grid construction     ... off

Total number of grid points                  ...    91660
Total number of batches                      ...     1441
Average number of points per batch           ...       63
Average number of grid points per atom       ...     4166
Time for grid setup =    2.983 sec


--------------------
CPCM SOLVATION MODEL
--------------------
CPCM parameters:
  Epsilon                                         ...       7.2500
  Refrac                                          ...       1.4070
  Rsolv                                           ...       1.3000
  Surface type                                    ... GAUSSIAN VDW
  Epsilon function type                           ...         CPCM
Radii:
 Radius for N  used is    3.5149 Bohr (=   1.8600 Ang.)
 Radius for C  used is    3.8550 Bohr (=   2.0400 Ang.)
 Radius for H  used is    2.4944 Bohr (=   1.3200 Ang.)
Calculating surface                               ...        done! (  0.0s)
GEPOL surface points                              ...         1215
GEPOL Volume                                      ...    1056.9150
GEPOL Surface-area                                ...     619.6061
Calculating surface distance matrix               ...        done! (  0.0s)
Performing Cholesky decomposition & store         ...        done! (  0.2s)
Overall time for CPCM initialization              ...                 0.2s
--------------
SCF ITERATIONS
--------------
ITER       Energy         Delta-E        Max-DP      RMS-DP      [F,P]     Damp
  0   -292.5502191086   0.000000000000 0.03878255  0.00033009  0.3037784 0.7000
  1   -292.5608082135  -0.010589104935 0.04424649  0.00035323  0.1850841 0.7000
                               ***Turning on DIIS***
  2   -292.6595406959  -0.098732482390 0.09182145  0.00072071  0.0623168 0.0000
  3   -292.8481953826  -0.188654686740 0.01478135  0.00009945  0.1161171 0.7000
  4   -292.8978904105  -0.049695027841 0.06140614  0.00039425  0.0950142 0.0000
  5   -292.9212926664  -0.023402255955 0.00878759  0.00006212  0.0102766 0.0000
  6   -292.9222392233  -0.000946556823 0.00677644  0.00004406  0.0135764 0.0000
                      *** Initiating the SOSCF procedure ***
                           *** Shutting down DIIS ***
                      *** Re-Reading the Fockian *** 
                      *** Removing any level shift *** 
ITER      Energy       Delta-E        Grad      Rot      Max-DP    RMS-DP
  7   -292.92253175  -0.0002925263  0.000358  0.000358  0.003393  0.000023
  8   -292.92257683  -0.0000450837  0.000201  0.000634  0.003428  0.000024
  9   -292.92257831  -0.0000014751  0.000149  0.000112  0.000232  0.000002
 10   -292.92258136  -0.0000030501  0.000020  0.000026  0.000069  0.000001
 11   -292.92258135   0.0000000111  0.000025  0.000014  0.000037  0.000000
                  ***Gradient check signals convergence***
              ***Rediagonalizing the Fockian in SOSCF/NRSCF***

               *****************************************************
               *                     SUCCESS                       *
               *           SCF CONVERGED AFTER  12 CYCLES          *
               *****************************************************


----------------
TOTAL SCF ENERGY
----------------

Total Energy       :         -292.92258141 Eh           -7970.82867 eV

Components:
Nuclear Repulsion  :          335.07276477 Eh            9117.79347 eV
Electronic Energy  :         -627.99534618 Eh          -17088.62214 eV
One Electron Energy:        -1057.18961509 Eh          -28767.59194 eV
Two Electron Energy:          429.19426891 Eh           11678.96980 eV
CPCM Dielectric    :           -0.00544239 Eh              -0.14809 eV

Virial components:
Potential Energy   :         -584.22447929 Eh          -15897.55630 eV
Kinetic Energy     :          291.30189788 Eh            7926.72763 eV
Virial Ratio       :            2.00556359


DFT components:
N(Alpha)           :       28.999941769019 electrons
N(Beta)            :       28.999941769019 electrons
N(Total)           :       57.999883538038 electrons
E(X)               :      -31.545317586688 Eh       
E(C)               :       -1.926610536633 Eh       
E(XC)              :      -33.471928123321 Eh       
DFET-embed. en.    :        0.000000000000 Eh       
CPCM Solvation Model Properties:
Surface-charge          :           -0.03474722
Charge-correction       :           -0.00014985 Eh              -0.00408 eV
Free-energy (cav+disp)  :  This term is not implemented in the current solvation scheme

---------------
SCF CONVERGENCE
---------------

  Last Energy change         ...   -6.6739e-08  Tolerance :   1.0000e-08
  Last MAX-Density change    ...    1.7490e-05  Tolerance :   1.0000e-07
  Last RMS-Density change    ...    1.4801e-07  Tolerance :   5.0000e-09
  Last Orbital Gradient      ...    1.7633e-06  Tolerance :   1.0000e-05
  Last Orbital Rotation      ...    4.1729e-06  Tolerance :   1.0000e-05

             **** THE GBW FILE WAS UPDATED (DiPA_sp.gbw) ****
             **** DENSITY DiPA_sp.scfp WAS UPDATED ****
             **** ENERGY FILE WAS UPDATED (DiPA_sp.en.tmp) ****
             **** THE GBW FILE WAS UPDATED (DiPA_sp.gbw) ****
             **** DENSITY DiPA_sp.scfp WAS UPDATED ****
----------------
ORBITAL ENERGIES
----------------

  NO   OCC          E(Eh)            E(eV) 
   0   2.0000     -14.440417      -392.9437 
   1   2.0000     -10.318754      -280.7876 
   2   2.0000     -10.318611      -280.7837 
   3   2.0000     -10.277560      -279.6666 
   4   2.0000     -10.276853      -279.6474 
   5   2.0000     -10.275995      -279.6240 
   6   2.0000     -10.275990      -279.6239 
   7   2.0000      -0.924875       -25.1671 
   8   2.0000      -0.804633       -21.8952 
   9   2.0000      -0.746930       -20.3250 
  10   2.0000      -0.703543       -19.1444 
  11   2.0000      -0.700394       -19.0587 
  12   2.0000      -0.604596       -16.4519 
  13   2.0000      -0.577609       -15.7175 
  14   2.0000      -0.503908       -13.7120 
  15   2.0000      -0.472099       -12.8465 
  16   2.0000      -0.463300       -12.6070 
  17   2.0000      -0.445244       -12.1157 
  18   2.0000      -0.415530       -11.3072 
  19   2.0000      -0.411795       -11.2055 
  20   2.0000      -0.398523       -10.8444 
  21   2.0000      -0.394817       -10.7435 
  22   2.0000      -0.384112       -10.4522 
  23   2.0000      -0.364755        -9.9255 
  24   2.0000      -0.359566        -9.7843 
  25   2.0000      -0.347269        -9.4497 
  26   2.0000      -0.339192        -9.2299 
  27   2.0000      -0.332902        -9.0587 
  28   2.0000      -0.241814        -6.5801 
  29   0.0000       0.024807         0.6750 
  30   0.0000       0.044745         1.2176 
  31   0.0000       0.045889         1.2487 
  32   0.0000       0.050847         1.3836 
  33   0.0000       0.072507         1.9730 
  34   0.0000       0.074626         2.0307 
  35   0.0000       0.080792         2.1985 
  36   0.0000       0.083881         2.2825 
  37   0.0000       0.093638         2.5480 
  38   0.0000       0.106216         2.8903 
  39   0.0000       0.110325         3.0021 
  40   0.0000       0.112273         3.0551 
  41   0.0000       0.127590         3.4719 
  42   0.0000       0.131119         3.5679 
  43   0.0000       0.136599         3.7170 
  44   0.0000       0.143615         3.9080 
  45   0.0000       0.144382         3.9288 
  46   0.0000       0.147886         4.0242 
  47   0.0000       0.158709         4.3187 
  48   0.0000       0.165781         4.5111 
  49   0.0000       0.178508         4.8574 
  50   0.0000       0.181187         4.9304 
  51   0.0000       0.187163         5.0930 
  52   0.0000       0.200599         5.4586 
  53   0.0000       0.205644         5.5959 
  54   0.0000       0.227416         6.1883 
  55   0.0000       0.244526         6.6539 
  56   0.0000       0.254140         6.9155 
  57   0.0000       0.266216         7.2441 
  58   0.0000       0.271567         7.3897 
  59   0.0000       0.278499         7.5784 
  60   0.0000       0.284171         7.7327 
  61   0.0000       0.288012         7.8372 
  62   0.0000       0.294037         8.0011 
  63   0.0000       0.304184         8.2773 
  64   0.0000       0.310151         8.4396 
  65   0.0000       0.319729         8.7003 
  66   0.0000       0.324339         8.8257 
  67   0.0000       0.327756         8.9187 
  68   0.0000       0.331619         9.0238 
  69   0.0000       0.333923         9.0865 
  70   0.0000       0.341195         9.2844 
  71   0.0000       0.347234         9.4487 
  72   0.0000       0.349727         9.5166 
  73   0.0000       0.352675         9.5968 
  74   0.0000       0.358022         9.7423 
  75   0.0000       0.364667         9.9231 
  76   0.0000       0.365870         9.9558 
  77   0.0000       0.369635        10.0583 
  78   0.0000       0.383493        10.4354 
  79   0.0000       0.391468        10.6524 
  80   0.0000       0.394452        10.7336 
  81   0.0000       0.398295        10.8382 
  82   0.0000       0.414272        11.2729 
  83   0.0000       0.422612        11.4999 
  84   0.0000       0.450443        12.2572 
  85   0.0000       0.467783        12.7290 
  86   0.0000       0.473967        12.8973 
  87   0.0000       0.498293        13.5592 
  88   0.0000       0.510987        13.9047 
  89   0.0000       0.517339        14.0775 
  90   0.0000       0.546621        14.8743 
  91   0.0000       0.553054        15.0494 
  92   0.0000       0.566633        15.4189 
  93   0.0000       0.569222        15.4893 
  94   0.0000       0.579447        15.7676 
  95   0.0000       0.587435        15.9849 
  96   0.0000       0.603549        16.4234 
  97   0.0000       0.612783        16.6747 
  98   0.0000       0.621686        16.9169 
  99   0.0000       0.622922        16.9506 
 100   0.0000       0.628338        17.0979 
 101   0.0000       0.638892        17.3851 
 102   0.0000       0.642326        17.4786 
 103   0.0000       0.652488        17.7551 
 104   0.0000       0.658427        17.9167 
 105   0.0000       0.673592        18.3294 
 106   0.0000       0.686738        18.6871 
 107   0.0000       0.688569        18.7369 
 108   0.0000       0.707274        19.2459 
 109   0.0000       0.714683        19.4475 
 110   0.0000       0.722206        19.6522 
 111   0.0000       0.742049        20.1922 
 112   0.0000       0.763219        20.7682 
 113   0.0000       0.771853        21.0032 
 114   0.0000       0.774263        21.0688 
 115   0.0000       0.782998        21.3064 
 116   0.0000       0.795245        21.6397 
 117   0.0000       0.798350        21.7242 
 118   0.0000       0.802906        21.8482 
 119   0.0000       0.810702        22.0603 
 120   0.0000       0.818196        22.2642 
 121   0.0000       0.828392        22.5417 
 122   0.0000       0.835577        22.7372 
 123   0.0000       0.840506        22.8713 
 124   0.0000       0.841225        22.8909 
 125   0.0000       0.851616        23.1737 
 126   0.0000       0.856714        23.3124 
 127   0.0000       0.860673        23.4201 
 128   0.0000       0.872021        23.7289 
 129   0.0000       0.877600        23.8807 
 130   0.0000       0.885511        24.0960 
 131   0.0000       0.894773        24.3480 
 132   0.0000       0.900368        24.5003 
 133   0.0000       0.907033        24.6816 
 134   0.0000       0.908772        24.7289 
 135   0.0000       0.918428        24.9917 
 136   0.0000       0.936192        25.4751 
 137   0.0000       0.938098        25.5269 
 138   0.0000       0.950267        25.8581 
 139   0.0000       0.953627        25.9495 
 140   0.0000       0.958267        26.0758 
 141   0.0000       0.972416        26.4608 
 142   0.0000       0.981535        26.7089 
 143   0.0000       0.986667        26.8486 
 144   0.0000       0.999337        27.1933 
 145   0.0000       1.014986        27.6192 
 146   0.0000       1.016138        27.6505 
 147   0.0000       1.032719        28.1017 
 148   0.0000       1.033986        28.1362 
 149   0.0000       1.040018        28.3003 
 150   0.0000       1.050790        28.5935 
 151   0.0000       1.060543        28.8588 
 152   0.0000       1.064319        28.9616 
 153   0.0000       1.080959        29.4144 
 154   0.0000       1.091361        29.6974 
 155   0.0000       1.095271        29.8038 
 156   0.0000       1.111462        30.2444 
 157   0.0000       1.120329        30.4857 
 158   0.0000       1.131724        30.7958 
 159   0.0000       1.145083        31.1593 
 160   0.0000       1.161029        31.5932 
 161   0.0000       1.165318        31.7099 
 162   0.0000       1.173079        31.9211 
 163   0.0000       1.182253        32.1707 
 164   0.0000       1.199868        32.6501 
 165   0.0000       1.211340        32.9622 
 166   0.0000       1.218913        33.1683 
 167   0.0000       1.221639        33.2425 
 168   0.0000       1.241586        33.7853 
 169   0.0000       1.248652        33.9775 
 170   0.0000       1.269682        34.5498 
 171   0.0000       1.276145        34.7257 
 172   0.0000       1.281287        34.8656 
 173   0.0000       1.298853        35.3436 
 174   0.0000       1.311503        35.6878 
 175   0.0000       1.331860        36.2418 
 176   0.0000       1.343203        36.5504 
 177   0.0000       1.355420        36.8828 
 178   0.0000       1.362379        37.0722 
 179   0.0000       1.371739        37.3269 
 180   0.0000       1.381355        37.5886 
 181   0.0000       1.391812        37.8731 
 182   0.0000       1.410060        38.3697 
 183   0.0000       1.424295        38.7570 
 184   0.0000       1.427202        38.8361 
 185   0.0000       1.441423        39.2231 
 186   0.0000       1.463987        39.8371 
 187   0.0000       1.468415        39.9576 
 188   0.0000       1.471151        40.0320 
 189   0.0000       1.483663        40.3725 
 190   0.0000       1.499138        40.7936 
 191   0.0000       1.509249        41.0688 
 192   0.0000       1.523719        41.4625 
 193   0.0000       1.536414        41.8079 
 194   0.0000       1.550517        42.1917 
 195   0.0000       1.560049        42.4511 
 196   0.0000       1.578602        42.9559 
 197   0.0000       1.585071        43.1320 
 198   0.0000       1.593088        43.3501 
 199   0.0000       1.602924        43.6178 
 200   0.0000       1.619118        44.0584 
 201   0.0000       1.635766        44.5114 
 202   0.0000       1.658163        45.1209 
 203   0.0000       1.675844        45.6020 
 204   0.0000       1.710085        46.5338 
 205   0.0000       1.730815        47.0979 
 206   0.0000       1.758461        47.8501 
 207   0.0000       1.785637        48.5896 
 208   0.0000       1.794855        48.8405 
 209   0.0000       1.797511        48.9128 
 210   0.0000       1.816083        49.4181 
 211   0.0000       1.823368        49.6164 
 212   0.0000       1.852318        50.4041 
 213   0.0000       1.856838        50.5271 
 214   0.0000       1.865675        50.7676 
 215   0.0000       1.874185        50.9992 
 216   0.0000       1.884068        51.2681 
 217   0.0000       1.886171        51.3253 
 218   0.0000       1.900925        51.7268 
 219   0.0000       1.911144        52.0049 
 220   0.0000       1.927116        52.4395 
 221   0.0000       1.939496        52.7764 
 222   0.0000       1.953500        53.1574 
 223   0.0000       1.961830        53.3841 
 224   0.0000       1.968574        53.5676 
 225   0.0000       1.976787        53.7911 
 226   0.0000       1.986476        54.0548 
 227   0.0000       1.988542        54.1110 
 228   0.0000       2.007384        54.6237 
 229   0.0000       2.030388        55.2497 
 230   0.0000       2.038260        55.4639 
 231   0.0000       2.048320        55.7376 
 232   0.0000       2.050641        55.8008 
 233   0.0000       2.054705        55.9114 
 234   0.0000       2.069470        56.3131 
 235   0.0000       2.073755        56.4297 
 236   0.0000       2.085477        56.7487 
 237   0.0000       2.090773        56.8928 
 238   0.0000       2.101985        57.1979 
 239   0.0000       2.115041        57.5532 
 240   0.0000       2.125539        57.8389 
 241   0.0000       2.130735        57.9802 
 242   0.0000       2.137814        58.1729 
 243   0.0000       2.141411        58.2707 
 244   0.0000       2.147646        58.4404 
 245   0.0000       2.153348        58.5956 
 246   0.0000       2.161204        58.8093 
 247   0.0000       2.175067        59.1866 
 248   0.0000       2.180002        59.3209 
 249   0.0000       2.185160        59.4612 
 250   0.0000       2.189584        59.5816 
 251   0.0000       2.195296        59.7370 
 252   0.0000       2.207111        60.0585 
 253   0.0000       2.215003        60.2733 
 254   0.0000       2.219698        60.4011 
 255   0.0000       2.226129        60.5761 
 256   0.0000       2.235078        60.8196 
 257   0.0000       2.245570        61.1051 
 258   0.0000       2.269839        61.7655 
 259   0.0000       2.275707        61.9251 
 260   0.0000       2.282913        62.1212 
 261   0.0000       2.304068        62.6969 
 262   0.0000       2.313618        62.9567 
 263   0.0000       2.335969        63.5650 
 264   0.0000       2.349227        63.9257 
 265   0.0000       2.355172        64.0875 
 266   0.0000       2.362738        64.2934 
 267   0.0000       2.378175        64.7134 
 268   0.0000       2.382129        64.8210 
 269   0.0000       2.396833        65.2211 
 270   0.0000       2.410616        65.5962 
 271   0.0000       2.420626        65.8686 
 272   0.0000       2.423917        65.9581 
 273   0.0000       2.433454        66.2176 
 274   0.0000       2.440982        66.4225 
 275   0.0000       2.456303        66.8394 
 276   0.0000       2.467731        67.1504 
 277   0.0000       2.474120        67.3242 
 278   0.0000       2.479151        67.4611 
 279   0.0000       2.489042        67.7303 
 280   0.0000       2.518598        68.5345 
 281   0.0000       2.524888        68.7057 
 282   0.0000       2.537312        69.0438 
 283   0.0000       2.544506        69.2395 
 284   0.0000       2.552631        69.4606 
 285   0.0000       2.569809        69.9281 
 286   0.0000       2.576242        70.1031 
 287   0.0000       2.581287        70.2404 
 288   0.0000       2.588699        70.4421 
 289   0.0000       2.598156        70.6994 
 290   0.0000       2.599206        70.7280 
 291   0.0000       2.609569        71.0100 
 292   0.0000       2.622562        71.3636 
 293   0.0000       2.634535        71.6893 
 294   0.0000       2.643498        71.9332 
 295   0.0000       2.660562        72.3976 
 296   0.0000       2.666240        72.5521 
 297   0.0000       2.680619        72.9434 
 298   0.0000       2.690823        73.2210 
 299   0.0000       2.702657        73.5430 
 300   0.0000       2.715842        73.9018 
 301   0.0000       2.721648        74.0598 
 302   0.0000       2.751246        74.8652 
 303   0.0000       2.757437        75.0337 
 304   0.0000       2.763684        75.2037 
 305   0.0000       2.787920        75.8632 
 306   0.0000       2.792799        75.9959 
 307   0.0000       2.801027        76.2198 
 308   0.0000       2.803787        76.2949 
 309   0.0000       2.813981        76.5723 
 310   0.0000       2.820109        76.7391 
 311   0.0000       2.839110        77.2561 
 312   0.0000       2.843430        77.3737 
 313   0.0000       2.851432        77.5914 
 314   0.0000       2.858022        77.7707 
 315   0.0000       2.862921        77.9040 
 316   0.0000       2.865758        77.9812 
 317   0.0000       2.889910        78.6384 
 318   0.0000       2.899847        78.9088 
 319   0.0000       2.903290        79.0025 
 320   0.0000       2.910263        79.1923 
 321   0.0000       2.919340        79.4393 
 322   0.0000       2.930759        79.7500 
 323   0.0000       2.937715        79.9393 
 324   0.0000       2.945533        80.1520 
 325   0.0000       2.960731        80.5656 
 326   0.0000       2.976608        80.9976 
 327   0.0000       2.981315        81.1257 
 328   0.0000       3.000036        81.6351 
 329   0.0000       3.001414        81.6726 
 330   0.0000       3.013956        82.0139 
 331   0.0000       3.022715        82.2523 
 332   0.0000       3.025498        82.3280 
 333   0.0000       3.033722        82.5518 
 334   0.0000       3.040827        82.7451 
 335   0.0000       3.046273        82.8933 
 336   0.0000       3.054146        83.1075 
 337   0.0000       3.064375        83.3859 
 338   0.0000       3.074244        83.6544 
 339   0.0000       3.079373        83.7940 
 340   0.0000       3.098503        84.3146 
 341   0.0000       3.105330        84.5003 
 342   0.0000       3.117909        84.8426 
 343   0.0000       3.130127        85.1751 
 344   0.0000       3.151264        85.7502 
 345   0.0000       3.167549        86.1934 
 346   0.0000       3.180097        86.5348 
 347   0.0000       3.184986        86.6679 
 348   0.0000       3.194152        86.9173 
 349   0.0000       3.200346        87.0858 
 350   0.0000       3.203905        87.1827 
 351   0.0000       3.223964        87.7285 
 352   0.0000       3.234827        88.0241 
 353   0.0000       3.259467        88.6946 
 354   0.0000       3.269133        88.9576 
 355   0.0000       3.282314        89.3163 
 356   0.0000       3.285826        89.4119 
 357   0.0000       3.302085        89.8543 
 358   0.0000       3.311558        90.1121 
 359   0.0000       3.317360        90.2700 
 360   0.0000       3.327914        90.5571 
 361   0.0000       3.333835        90.7183 
 362   0.0000       3.349331        91.1399 
 363   0.0000       3.361891        91.4817 
 364   0.0000       3.378135        91.9237 
 365   0.0000       3.405965        92.6810 
 366   0.0000       3.410409        92.8019 
 367   0.0000       3.432375        93.3997 
 368   0.0000       3.439538        93.5946 
 369   0.0000       3.448384        93.8353 
 370   0.0000       3.453059        93.9625 
 371   0.0000       3.462877        94.2297 
 372   0.0000       3.478025        94.6419 
 373   0.0000       3.486295        94.8669 
 374   0.0000       3.497144        95.1621 
 375   0.0000       3.508329        95.4665 
 376   0.0000       3.524713        95.9123 
 377   0.0000       3.529477        96.0419 
 378   0.0000       3.558218        96.8240 
 379   0.0000       3.577535        97.3497 
 380   0.0000       3.592372        97.7534 
 381   0.0000       3.607146        98.1554 
 382   0.0000       3.626546        98.6833 
 383   0.0000       3.638355        99.0047 
 384   0.0000       3.645574        99.2011 
 385   0.0000       3.650340        99.3308 
 386   0.0000       3.692032       100.4653 
 387   0.0000       3.695458       100.5585 
 388   0.0000       3.706775       100.8665 
 389   0.0000       3.733269       101.5874 
 390   0.0000       3.748429       101.9999 
 391   0.0000       3.752794       102.1187 
 392   0.0000       3.771286       102.6219 
 393   0.0000       3.777635       102.7947 
 394   0.0000       3.790068       103.1330 
 395   0.0000       3.801372       103.4406 
 396   0.0000       3.813834       103.7797 
 397   0.0000       3.825304       104.0918 
 398   0.0000       3.854614       104.8894 
 399   0.0000       3.862627       105.1074 
 400   0.0000       3.874964       105.4431 
 401   0.0000       3.888051       105.7992 
 402   0.0000       3.895210       105.9940 
 403   0.0000       3.899531       106.1116 
 404   0.0000       3.909813       106.3914 
 405   0.0000       3.920690       106.6874 
 406   0.0000       3.928452       106.8986 
 407   0.0000       3.935571       107.0923 
 408   0.0000       3.944968       107.3480 
 409   0.0000       3.951125       107.5156 
 410   0.0000       3.968292       107.9827 
 411   0.0000       3.980431       108.3130 
 412   0.0000       4.013415       109.2106 
 413   0.0000       4.038912       109.9044 
 414   0.0000       4.061880       110.5294 
 415   0.0000       4.096040       111.4589 
 416   0.0000       4.128794       112.3502 
 417   0.0000       4.172168       113.5305 
 418   0.0000       4.187175       113.9388 
 419   0.0000       4.228932       115.0751 
 420   0.0000       4.237190       115.2998 
 421   0.0000       4.259083       115.8956 
 422   0.0000       4.282885       116.5432 
 423   0.0000       4.346860       118.2841 
 424   0.0000       4.364381       118.7609 
 425   0.0000       4.391589       119.5012 
 426   0.0000       4.416128       120.1690 
 427   0.0000       4.437510       120.7508 
 428   0.0000       4.439771       120.8123 
 429   0.0000       4.503657       122.5507 
 430   0.0000       4.521386       123.0332 
 431   0.0000       4.553595       123.9096 
 432   0.0000       4.612403       125.5099 
 433   0.0000       4.668222       127.0288 
 434   0.0000       4.703680       127.9936 
 435   0.0000       4.717585       128.3720 
 436   0.0000       4.751262       129.2884 
 437   0.0000       4.772854       129.8760 
 438   0.0000       4.947165       134.6192 
 439   0.0000       5.040229       137.1516 
 440   0.0000       5.062306       137.7523 
 441   0.0000       5.082694       138.3071 
 442   0.0000       5.105569       138.9296 
 443   0.0000       5.110544       139.0650 
 444   0.0000       5.148290       140.0921 
 445   0.0000       5.160780       140.4320 
 446   0.0000       5.216799       141.9563 
 447   0.0000       5.225568       142.1949 
 448   0.0000       5.283383       143.7682 
 449   0.0000       5.353339       145.6718 
 450   0.0000       5.373312       146.2152 
 451   0.0000       5.395793       146.8270 
 452   0.0000       5.408426       147.1707 
 453   0.0000       5.426071       147.6509 
 454   0.0000       5.434985       147.8935 
 455   0.0000       5.484521       149.2414 
 456   0.0000       5.490204       149.3961 
 457   0.0000       5.498205       149.6138 
 458   0.0000       5.505063       149.8004 
 459   0.0000       5.511369       149.9720 
 460   0.0000       5.543672       150.8510 
 461   0.0000       5.555462       151.1718 
 462   0.0000       5.574422       151.6877 
 463   0.0000       5.601986       152.4378 
 464   0.0000       5.631083       153.2296 
 465   0.0000       5.644685       153.5997 
 466   0.0000       5.681650       154.6056 
 467   0.0000       5.698626       155.0675 
 468   0.0000       5.709400       155.3607 
 469   0.0000       5.724226       155.7641 
 470   0.0000       5.730588       155.9372 
 471   0.0000       5.739139       156.1699 
 472   0.0000       5.750985       156.4923 
 473   0.0000       5.763781       156.8405 
 474   0.0000       5.767603       156.9445 
 475   0.0000       5.796666       157.7353 
 476   0.0000       5.804323       157.9437 
 477   0.0000       5.814229       158.2132 
 478   0.0000       5.827431       158.5725 
 479   0.0000       5.842813       158.9910 
 480   0.0000       5.855075       159.3247 
 481   0.0000       5.867500       159.6628 
 482   0.0000       5.871460       159.7706 
 483   0.0000       5.882331       160.0664 
 484   0.0000       5.890264       160.2822 
 485   0.0000       5.897410       160.4767 
 486   0.0000       5.909053       160.7935 
 487   0.0000       5.910910       160.8440 
 488   0.0000       5.925599       161.2437 
 489   0.0000       5.932598       161.4342 
 490   0.0000       5.942873       161.7138 
 491   0.0000       5.950592       161.9238 
 492   0.0000       5.956161       162.0754 
 493   0.0000       5.961913       162.2319 
 494   0.0000       5.968442       162.4096 
 495   0.0000       5.973247       162.5403 
 496   0.0000       5.981787       162.7727 
 497   0.0000       5.992760       163.0713 
 498   0.0000       5.996979       163.1861 
 499   0.0000       6.010470       163.5532 
 500   0.0000       6.028721       164.0498 
 501   0.0000       6.051278       164.6636 
 502   0.0000       6.063176       164.9874 
 503   0.0000       6.082496       165.5131 
 504   0.0000       6.090185       165.7224 
 505   0.0000       6.096428       165.8922 
 506   0.0000       6.106324       166.1615 
 507   0.0000       6.114375       166.3806 
 508   0.0000       6.124229       166.6487 
 509   0.0000       6.135326       166.9507 
 510   0.0000       6.143672       167.1778 
 511   0.0000       6.158280       167.5753 
 512   0.0000       6.171447       167.9336 
 513   0.0000       6.176937       168.0830 
 514   0.0000       6.183302       168.2562 
 515   0.0000       6.204313       168.8279 
 516   0.0000       6.210098       168.9854 
 517   0.0000       6.212885       169.0612 
 518   0.0000       6.222008       169.3094 
 519   0.0000       6.229215       169.5056 
 520   0.0000       6.236859       169.7136 
 521   0.0000       6.253648       170.1704 
 522   0.0000       6.266236       170.5129 
 523   0.0000       6.277899       170.8303 
 524   0.0000       6.282444       170.9540 
 525   0.0000       6.287760       171.0986 
 526   0.0000       6.293442       171.2533 
 527   0.0000       6.311133       171.7347 
 528   0.0000       6.317705       171.9135 
 529   0.0000       6.333938       172.3552 
 530   0.0000       6.344009       172.6293 
 531   0.0000       6.345105       172.6591 
 532   0.0000       6.353467       172.8866 
 533   0.0000       6.367010       173.2551 
 534   0.0000       6.385539       173.7594 
 535   0.0000       6.392608       173.9517 
 536   0.0000       6.399783       174.1469 
 537   0.0000       6.410516       174.4390 
 538   0.0000       6.428165       174.9193 
 539   0.0000       6.438118       175.1901 
 540   0.0000       6.439782       175.2354 
 541   0.0000       6.462497       175.8535 
 542   0.0000       6.472438       176.1240 
 543   0.0000       6.489315       176.5832 
 544   0.0000       6.503319       176.9643 
 545   0.0000       6.512201       177.2060 
 546   0.0000       6.514082       177.2572 
 547   0.0000       6.526622       177.5984 
 548   0.0000       6.541596       178.0059 
 549   0.0000       6.557053       178.4265 
 550   0.0000       6.567803       178.7190 
 551   0.0000       6.579448       179.0359 
 552   0.0000       6.598738       179.5608 
 553   0.0000       6.612363       179.9315 
 554   0.0000       6.618420       180.0964 
 555   0.0000       6.629564       180.3996 
 556   0.0000       6.637791       180.6235 
 557   0.0000       6.655091       181.0942 
 558   0.0000       6.674388       181.6193 
 559   0.0000       6.689768       182.0378 
 560   0.0000       6.701184       182.3485 
 561   0.0000       6.708898       182.5584 
 562   0.0000       6.715001       182.7245 
 563   0.0000       6.748578       183.6381 
 564   0.0000       6.754931       183.8110 
 565   0.0000       6.763413       184.0418 
 566   0.0000       6.797004       184.9559 
 567   0.0000       6.822065       185.6378 
 568   0.0000       6.829740       185.8467 
 569   0.0000       6.835664       186.0079 
 570   0.0000       6.858911       186.6405 
 571   0.0000       6.876004       187.1056 
 572   0.0000       6.881464       187.2542 
 573   0.0000       6.899778       187.7525 
 574   0.0000       6.908776       187.9974 
 575   0.0000       6.937817       188.7876 
 576   0.0000       6.965952       189.5532 
 577   0.0000       6.972287       189.7256 
 578   0.0000       6.989780       190.2016 
 579   0.0000       7.000841       190.5026 
 580   0.0000       7.006445       190.6551 
 581   0.0000       7.014667       190.8788 
 582   0.0000       7.023892       191.1298 
 583   0.0000       7.035357       191.4418 
 584   0.0000       7.048011       191.7861 
 585   0.0000       7.055870       192.0000 
 586   0.0000       7.072828       192.4614 
 587   0.0000       7.087007       192.8473 
 588   0.0000       7.099170       193.1782 
 589   0.0000       7.125822       193.9035 
 590   0.0000       7.151897       194.6130 
 591   0.0000       7.155025       194.6981 
 592   0.0000       7.180109       195.3807 
 593   0.0000       7.184583       195.5024 
 594   0.0000       7.205397       196.0688 
 595   0.0000       7.213127       196.2792 
 596   0.0000       7.245056       197.1480 
 597   0.0000       7.250444       197.2946 
 598   0.0000       7.286002       198.2622 
 599   0.0000       7.304012       198.7523 
 600   0.0000       7.318756       199.1535 
 601   0.0000       7.329302       199.4405 
 602   0.0000       7.341384       199.7692 
 603   0.0000       7.355124       200.1431 
 604   0.0000       7.371591       200.5912 
 605   0.0000       7.388294       201.0457 
 606   0.0000       7.396595       201.2716 
 607   0.0000       7.424974       202.0438 
 608   0.0000       7.432112       202.2380 
 609   0.0000       7.436771       202.3648 
 610   0.0000       7.442827       202.5296 
 611   0.0000       7.449911       202.7224 
 612   0.0000       7.466611       203.1768 
 613   0.0000       7.472837       203.3462 
 614   0.0000       7.495472       203.9622 
 615   0.0000       7.511468       204.3974 
 616   0.0000       7.533644       205.0009 
 617   0.0000       7.545302       205.3181 
 618   0.0000       7.548770       205.4125 
 619   0.0000       7.555526       205.5963 
 620   0.0000       7.560628       205.7352 
 621   0.0000       7.576583       206.1693 
 622   0.0000       7.579999       206.2623 
 623   0.0000       7.591300       206.5698 
 624   0.0000       7.609425       207.0630 
 625   0.0000       7.617888       207.2933 
 626   0.0000       7.623494       207.4458 
 627   0.0000       7.633493       207.7179 
 628   0.0000       7.638677       207.8590 
 629   0.0000       7.648268       208.1199 
 630   0.0000       7.666656       208.6203 
 631   0.0000       7.675075       208.8494 
 632   0.0000       7.677721       208.9214 
 633   0.0000       7.692488       209.3232 
 634   0.0000       7.712638       209.8715 
 635   0.0000       7.726453       210.2475 
 636   0.0000       7.735446       210.4922 
 637   0.0000       7.741987       210.6702 
 638   0.0000       7.761323       211.1963 
 639   0.0000       7.767567       211.3662 
 640   0.0000       7.774132       211.5449 
 641   0.0000       7.788522       211.9365 
 642   0.0000       7.789928       211.9747 
 643   0.0000       7.802960       212.3293 
 644   0.0000       7.815474       212.6699 
 645   0.0000       7.821707       212.8395 
 646   0.0000       7.836831       213.2510 
 647   0.0000       7.839489       213.3233 
 648   0.0000       7.847728       213.5475 
 649   0.0000       7.862472       213.9487 
 650   0.0000       7.873951       214.2611 
 651   0.0000       7.882017       214.4806 
 652   0.0000       7.895079       214.8360 
 653   0.0000       7.901622       215.0141 
 654   0.0000       7.920054       215.5156 
 655   0.0000       7.930261       215.7934 
 656   0.0000       7.940468       216.0711 
 657   0.0000       7.943973       216.1665 
 658   0.0000       7.956766       216.5146 
 659   0.0000       7.984507       217.2695 
 660   0.0000       7.992571       217.4889 
 661   0.0000       8.004015       217.8003 
 662   0.0000       8.017629       218.1708 
 663   0.0000       8.023446       218.3291 
 664   0.0000       8.035226       218.6496 
 665   0.0000       8.047360       218.9798 
 666   0.0000       8.057219       219.2481 
 667   0.0000       8.059875       219.3204 
 668   0.0000       8.075382       219.7423 
 669   0.0000       8.080630       219.8851 
 670   0.0000       8.098471       220.3706 
 671   0.0000       8.114114       220.7963 
 672   0.0000       8.124198       221.0707 
 673   0.0000       8.137894       221.4434 
 674   0.0000       8.169174       222.2945 
 675   0.0000       8.177651       222.5252 
 676   0.0000       8.202357       223.1975 
 677   0.0000       8.210341       223.4147 
 678   0.0000       8.231751       223.9973 
 679   0.0000       8.271653       225.0831 
 680   0.0000       8.281864       225.3610 
 681   0.0000       8.299570       225.8428 
 682   0.0000       8.305919       226.0155 
 683   0.0000       8.321406       226.4370 
 684   0.0000       8.337652       226.8790 
 685   0.0000       8.342744       227.0176 
 686   0.0000       8.360244       227.4938 
 687   0.0000       8.369254       227.7390 
 688   0.0000       8.373112       227.8440 
 689   0.0000       8.385121       228.1708 
 690   0.0000       8.396891       228.4910 
 691   0.0000       8.397847       228.5170 
 692   0.0000       8.403877       228.6811 
 693   0.0000       8.407797       228.7878 
 694   0.0000       8.426105       229.2860 
 695   0.0000       8.429180       229.3696 
 696   0.0000       8.442482       229.7316 
 697   0.0000       8.446570       229.8429 
 698   0.0000       8.456836       230.1222 
 699   0.0000       8.458812       230.1760 
 700   0.0000       8.469545       230.4680 
 701   0.0000       8.475461       230.6290 
 702   0.0000       8.482144       230.8109 
 703   0.0000       8.493740       231.1264 
 704   0.0000       8.507193       231.4925 
 705   0.0000       8.518106       231.7894 
 706   0.0000       8.524743       231.9701 
 707   0.0000       8.536530       232.2908 
 708   0.0000       8.555047       232.7947 
 709   0.0000       8.557858       232.8712 
 710   0.0000       8.563435       233.0229 
 711   0.0000       8.575236       233.3440 
 712   0.0000       8.580497       233.4872 
 713   0.0000       8.601587       234.0611 
 714   0.0000       8.606278       234.1887 
 715   0.0000       8.618134       234.5114 
 716   0.0000       8.634097       234.9457 
 717   0.0000       8.644203       235.2207 
 718   0.0000       8.662665       235.7231 
 719   0.0000       8.672352       235.9867 
 720   0.0000       8.699822       236.7342 
 721   0.0000       8.710099       237.0138 
 722   0.0000       8.736350       237.7282 
 723   0.0000       8.737838       237.7687 
 724   0.0000       8.767891       238.5865 
 725   0.0000       8.797967       239.4049 
 726   0.0000       8.804308       239.5774 
 727   0.0000       8.822051       240.0602 
 728   0.0000       8.848198       240.7717 
 729   0.0000       8.860739       241.1130 
 730   0.0000       8.869605       241.3542 
 731   0.0000       8.888098       241.8575 
 732   0.0000       8.891927       241.9616 
 733   0.0000       8.913424       242.5466 
 734   0.0000       8.923822       242.8295 
 735   0.0000       8.941343       243.3063 
 736   0.0000       8.947089       243.4627 
 737   0.0000       8.957557       243.7475 
 738   0.0000       8.968829       244.0542 
 739   0.0000       8.972305       244.1488 
 740   0.0000       8.984237       244.4735 
 741   0.0000       8.989547       244.6180 
 742   0.0000       8.998185       244.8531 
 743   0.0000       9.002184       244.9619 
 744   0.0000       9.008611       245.1368 
 745   0.0000       9.020839       245.4695 
 746   0.0000       9.032899       245.7977 
 747   0.0000       9.040574       246.0065 
 748   0.0000       9.051535       246.3048 
 749   0.0000       9.053757       246.3653 
 750   0.0000       9.073819       246.9112 
 751   0.0000       9.099204       247.6019 
 752   0.0000       9.128583       248.4014 
 753   0.0000       9.143072       248.7956 
 754   0.0000       9.160809       249.2783 
 755   0.0000       9.184434       249.9212 
 756   0.0000       9.236483       251.3375 
 757   0.0000       9.251722       251.7522 
 758   0.0000       9.283640       252.6207 
 759   0.0000       9.318497       253.5692 
 760   0.0000       9.360631       254.7157 
 761   0.0000       9.402707       255.8607 
 762   0.0000       9.432758       256.6784 
 763   0.0000       9.572945       260.4931 
 764   0.0000       9.617985       261.7187 
 765   0.0000       9.634788       262.1759 
 766   0.0000       9.663676       262.9620 
 767   0.0000       9.667407       263.0635 
 768   0.0000       9.682806       263.4825 
 769   0.0000       9.692270       263.7401 
 770   0.0000       9.700186       263.9555 
 771   0.0000       9.719089       264.4698 
 772   0.0000       9.725263       264.6379 
 773   0.0000       9.730584       264.7827 
 774   0.0000       9.748783       265.2779 
 775   0.0000       9.768460       265.8133 
 776   0.0000       9.777039       266.0468 
 777   0.0000       9.791639       266.4440 
 778   0.0000       9.815561       267.0950 
 779   0.0000       9.821391       267.2536 
 780   0.0000       9.830926       267.5131 
 781   0.0000       9.835022       267.6246 
 782   0.0000       9.840742       267.7802 
 783   0.0000       9.852811       268.1086 
 784   0.0000       9.861635       268.3487 
 785   0.0000       9.889602       269.1097 
 786   0.0000       9.896928       269.3091 
 787   0.0000       9.900303       269.4009 
 788   0.0000       9.919895       269.9341 
 789   0.0000       9.937530       270.4139 
 790   0.0000       9.945629       270.6343 
 791   0.0000       9.970584       271.3134 
 792   0.0000       9.989125       271.8179 
 793   0.0000      10.030842       272.9531 
 794   0.0000      10.060203       273.7520 
 795   0.0000      10.084613       274.4163 
 796   0.0000      10.133774       275.7540 
 797   0.0000      10.165380       276.6141 
 798   0.0000      10.213590       277.9259 
 799   0.0000      10.237159       278.5672 
 800   0.0000      10.275350       279.6065 
 801   0.0000      10.293628       280.1038 
 802   0.0000      10.302162       280.3361 
 803   0.0000      10.318997       280.7942 
 804   0.0000      10.330133       281.0972 
 805   0.0000      10.334682       281.2210 
 806   0.0000      10.345957       281.5278 
 807   0.0000      10.363342       282.0009 
 808   0.0000      10.380818       282.4764 
 809   0.0000      10.445026       284.2236 
 810   0.0000      10.478385       285.1314 
 811   0.0000      10.545022       286.9446 
 812   0.0000      10.591204       288.2013 
 813   0.0000      10.597498       288.3726 
 814   0.0000      10.761086       292.8240 
 815   0.0000      11.065099       301.0967 
 816   0.0000      11.213175       305.1260 
 817   0.0000      11.598037       315.5986 
 818   0.0000      11.750529       319.7481 
 819   0.0000      11.767440       320.2083 
 820   0.0000      11.954359       325.2946 
 821   0.0000      12.009341       326.7908 
 822   0.0000      12.033145       327.4385 
 823   0.0000      12.056129       328.0640 
 824   0.0000      12.090898       329.0101 
 825   0.0000      12.127070       329.9944 
 826   0.0000      12.198209       331.9302 
 827   0.0000      12.259815       333.6065 
 828   0.0000      12.768187       347.4400 
 829   0.0000      12.828515       349.0816 
 830   0.0000      13.140954       357.5835 
 831   0.0000      13.159163       358.0790 
 832   0.0000      13.218844       359.7030 
 833   0.0000      13.229927       360.0046 
 834   0.0000      14.879205       404.8837 
 835   0.0000      28.940419       787.5088 
 836   0.0000      28.961872       788.0926 
 837   0.0000      29.073877       791.1404 
 838   0.0000      29.102062       791.9074 
 839   0.0000      29.168244       793.7083 
 840   0.0000      29.175513       793.9061 
 841   0.0000      38.029778      1034.8429 
 842   0.0000     148.105947      4030.1677 
 843   0.0000     148.129404      4030.8060 
 844   0.0000     148.255481      4034.2367 
 845   0.0000     148.280612      4034.9206 
 846   0.0000     148.321732      4036.0395 
 847   0.0000     148.331513      4036.3057 
 848   0.0000     197.460227      5373.1659 

                    ********************************
                    * MULLIKEN POPULATION ANALYSIS *
                    ********************************

-----------------------
MULLIKEN ATOMIC CHARGES
-----------------------
   0 N :   -0.450534
   1 C :    0.100394
   2 C :    0.071285
   3 H :    0.188138
   4 C :   -0.303383
   5 C :   -0.294838
   6 H :    0.092179
   7 C :   -0.275924
   8 H :    0.051116
   9 C :   -0.301243
  10 H :    0.086951
  11 H :    0.095174
  12 H :    0.094645
  13 H :    0.099200
  14 H :    0.083196
  15 H :    0.096005
  16 H :    0.089337
  17 H :    0.094080
  18 H :    0.101932
  19 H :    0.095304
  20 H :    0.093404
  21 H :    0.093581
Sum of atomic charges:   -0.0000000

--------------------------------
MULLIKEN REDUCED ORBITAL CHARGES
--------------------------------
  0 N s       :     3.574955  s :     3.574955
      pz      :     1.167034  p :     3.803109
      px      :     1.079086
      py      :     1.556990
      dz2     :     0.011447  d :     0.065541
      dxz     :     0.017090
      dyz     :     0.011781
      dx2y2   :     0.011672
      dxy     :     0.013551
      f0      :     0.001188  f :     0.006536
      f+1     :     0.000949
      f-1     :     0.000705
      f+2     :     0.001307
      f-2     :     0.000535
      f+3     :     0.001004
      f-3     :     0.000849
      g0      :     0.000044  g :     0.000392
      g+1     :     0.000082
      g-1     :     0.000014
      g+2     :     0.000077
      g-2     :     0.000041
      g+3     :     0.000031
      g-3     :     0.000014
      g+4     :     0.000045
      g-4     :     0.000044
  1 C s       :     3.192700  s :     3.192700
      pz      :     0.903785  p :     2.548274
      px      :     0.720666
      py      :     0.923823
      dz2     :     0.023381  d :     0.137052
      dxz     :     0.023758
      dyz     :     0.028881
      dx2y2   :     0.022371
      dxy     :     0.038662
      f0      :     0.003444  f :     0.020046
      f+1     :     0.001727
      f-1     :     0.003280
      f+2     :     0.003703
      f-2     :     0.001064
      f+3     :     0.002789
      f-3     :     0.004039
      g0      :     0.000174  g :     0.001534
      g+1     :     0.000213
      g-1     :     0.000117
      g+2     :     0.000199
      g-2     :     0.000093
      g+3     :     0.000150
      g-3     :     0.000080
      g+4     :     0.000253
      g-4     :     0.000255
  2 C s       :     3.214761  s :     3.214761
      pz      :     0.755629  p :     2.550587
      px      :     0.836272
      py      :     0.958685
      dz2     :     0.028242  d :     0.140634
      dxz     :     0.027884
      dyz     :     0.039185
      dx2y2   :     0.027092
      dxy     :     0.018232
      f0      :     0.003542  f :     0.021197
      f+1     :     0.002292
      f-1     :     0.004128
      f+2     :     0.003732
      f-2     :     0.003208
      f+3     :     0.001763
      f-3     :     0.002533
      g0      :     0.000155  g :     0.001536
      g+1     :     0.000246
      g-1     :     0.000124
      g+2     :     0.000278
      g-2     :     0.000180
      g+3     :     0.000181
      g-3     :     0.000145
      g+4     :     0.000117
      g-4     :     0.000111
  3 H s       :     0.757692  s :     0.757692
      pz      :     0.014973  p :     0.046202
      px      :     0.016305
      py      :     0.014925
      dz2     :     0.002506  d :     0.007301
      dxz     :     0.001398
      dyz     :     0.000514
      dx2y2   :     0.001996
      dxy     :     0.000887
      f0      :     0.000104  f :     0.000666
      f+1     :     0.000081
      f-1     :     0.000127
      f+2     :     0.000151
      f-2     :     0.000084
      f+3     :     0.000046
      f-3     :     0.000073
  4 C s       :     3.283320  s :     3.283320
      pz      :     0.934137  p :     2.943600
      px      :     1.003640
      py      :     1.005822
      dz2     :     0.016400  d :     0.068828
      dxz     :     0.009955
      dyz     :     0.020874
      dx2y2   :     0.014399
      dxy     :     0.007200
      f0      :     0.001340  f :     0.007016
      f+1     :     0.001297
      f-1     :     0.001410
      f+2     :     0.001216
      f-2     :     0.000420
      f+3     :     0.000913
      f-3     :     0.000421
      g0      :     0.000101  g :     0.000620
      g+1     :     0.000129
      g-1     :     0.000079
      g+2     :     0.000093
      g-2     :     0.000077
      g+3     :     0.000052
      g-3     :     0.000027
      g+4     :     0.000045
      g-4     :     0.000018
  5 C s       :     3.262147  s :     3.262147
      pz      :     0.988507  p :     2.960126
      px      :     1.009281
[...]
      py      :     0.934418
      dz2     :     0.147944  d :     0.774420
      dxz     :     0.170069
      dyz     :     0.188743
      dx2y2   :     0.163686
      dxy     :     0.103979
      f0      :     0.034615  f :     0.190807
      f+1     :     0.025733
      f-1     :     0.030598
      f+2     :     0.029807
      f-2     :     0.030605
      f+3     :     0.014230
      f-3     :     0.025220
      g0      :     0.001506  g :     0.012466
      g+1     :     0.001739
      g-1     :     0.001498
      g+2     :     0.001587
      g-2     :     0.002048
      g+3     :     0.001071
      g-3     :     0.001298
      g+4     :     0.000701
      g-4     :     0.001018
  3 H s       :     0.707923  s :     0.707923
      pz      :     0.099664  p :     0.319428
      px      :     0.074869
      py      :     0.144895
      dz2     :     0.035189  d :     0.126243
      dxz     :     0.020412
      dyz     :     0.023408
      dx2y2   :     0.029852
      dxy     :     0.017382
      f0      :     0.003032  f :     0.021552
      f+1     :     0.002302
      f-1     :     0.004301
      f+2     :     0.004652
      f-2     :     0.003115
      f+3     :     0.001792
      f-3     :     0.002358
  4 C s       :     2.552336  s :     2.552336
      pz      :     0.890989  p :     2.765801
      px      :     0.935128
      py      :     0.939684
      dz2     :     0.089860  d :     0.384985
      dxz     :     0.062262
      dyz     :     0.112693
      dx2y2   :     0.093343
      dxy     :     0.026827
      f0      :     0.015352  f :     0.073969
      f+1     :     0.012780
      f-1     :     0.014470
      f+2     :     0.008966
      f-2     :     0.011468
      f+3     :     0.007233
      f-3     :     0.003701
      g0      :     0.000872  g :     0.003692
      g+1     :     0.000389
      g-1     :     0.000635
      g+2     :     0.000562
      g-2     :     0.000584
      g+3     :     0.000287
      g-3     :     0.000139
      g+4     :     0.000164
      g-4     :     0.000060
  5 C s       :     2.552740  s :     2.552740
      pz      :     0.934579  p :     2.770367
      px      :     0.936826
      py      :     0.898962
      dz2     :     0.085841  d :     0.378392
      dxz     :     0.035069
      dyz     :     0.094947
      dx2y2   :     0.104323
      dxy     :     0.058212
      f0      :     0.006884  f :     0.072290
      f+1     :     0.008591
      f-1     :     0.013361
      f+2     :     0.008832
      f-2     :     0.010842
      f+3     :     0.013112
      f-3     :     0.010669
      g0      :     0.000440  g :     0.003565
      g+1     :     0.000221
      g-1     :     0.000209
      g+2     :     0.000628
      g-2     :     0.000244
      g+3     :     0.000458
      g-3     :     0.000356
      g+4     :     0.000662
      g-4     :     0.000349
  6 H s       :     0.774819  s :     0.774819
      pz      :     0.070175  p :     0.193712
      px      :     0.050308
      py      :     0.073229
      dz2     :     0.019684  d :     0.069261
      dxz     :     0.009536
      dyz     :     0.012723
      dx2y2   :     0.016643
      dxy     :     0.010674
      f0      :     0.001176  f :     0.009538
      f+1     :     0.000627
      f-1     :     0.002291
      f+2     :     0.001601
      f-2     :     0.001583
      f+3     :     0.000889
      f-3     :     0.001371
  7 C s       :     2.550437  s :     2.550437
      pz      :     0.923156  p :     2.766184
      px      :     0.933091
      py      :     0.909937
      dz2     :     0.074712  d :     0.383204
      dxz     :     0.084119
      dyz     :     0.074171
      dx2y2   :     0.121193
      dxy     :     0.029009
      f0      :     0.010179  f :     0.073771
      f+1     :     0.009885
      f-1     :     0.012552
      f+2     :     0.012340
      f-2     :     0.010339
      f+3     :     0.007883
      f-3     :     0.010595
      g0      :     0.000130  g :     0.003694
      g+1     :     0.000346
      g-1     :     0.000802
      g+2     :     0.000389
      g-2     :     0.000386
      g+3     :     0.000370
      g-3     :     0.000696
      g+4     :     0.000449
      g-4     :     0.000126
  8 H s       :     0.784099  s :     0.784099
      pz      :     0.055612  p :     0.195197
      px      :     0.051611
      py      :     0.087975
      dz2     :     0.011195  d :     0.067370
      dxz     :     0.005682
      dyz     :     0.017678
      dx2y2   :     0.015890
      dxy     :     0.016924
      f0      :     0.000600  f :     0.009163
      f+1     :     0.000037
      f-1     :     0.002323
      f+2     :     0.001636
      f-2     :     0.001348
      f+3     :     0.001480
      f-3     :     0.001737
  9 C s       :     2.552355  s :     2.552355
      pz      :     0.936348  p :     2.763682
      px      :     0.889189
      py      :     0.938146
      dz2     :     0.039019  d :     0.385179
      dxz     :     0.106394
      dyz     :     0.075461
      dx2y2   :     0.092568
      dxy     :     0.071737
      f0      :     0.009291  f :     0.074053
      f+1     :     0.012295
      f-1     :     0.003008
      f+2     :     0.013028
      f-2     :     0.008052
      f+3     :     0.011101
      f-3     :     0.017279
      g0      :     0.000277  g :     0.003704
      g+1     :     0.000552
      g-1     :     0.000126
      g+2     :     0.000399
      g-2     :     0.000137
      g+3     :     0.000567
      g-3     :     0.000306
      g+4     :     0.000481
      g-4     :     0.000859
 10 H s       :     0.787611  s :     0.787611
      pz      :     0.064830  p :     0.192446
      px      :     0.058628
      py      :     0.068987
      dz2     :     0.019114  d :     0.066335
      dxz     :     0.009663
      dyz     :     0.011891
      dx2y2   :     0.016498
      dxy     :     0.009168
      f0      :     0.001180  f :     0.009113
      f+1     :     0.000650
      f-1     :     0.002101
      f+2     :     0.001785
      f-2     :     0.001476
      f+3     :     0.000675
      f-3     :     0.001245
 11 H s       :     0.788779  s :     0.788779
      pz      :     0.050050  p :     0.191945
      px      :     0.087174
      py      :     0.054721
      dz2     :     0.004410  d :     0.066141
      dxz     :     0.023650
      dyz     :     0.000593
      dx2y2   :     0.014044
      dxy     :     0.023443
      f0      :     0.001182  f :     0.009197
      f+1     :     0.001010
      f-1     :     0.000228
      f+2     :     0.001946
      f-2     :     0.000112
      f+3     :     0.001998
      f-3     :     0.002721
 12 H s       :     0.792342  s :     0.792342
      pz      :     0.054926  p :     0.192202
      px      :     0.054680
      py      :     0.082597
      dz2     :     0.009361  d :     0.066362
      dxz     :     0.002720
      dyz     :     0.019760
      dx2y2   :     0.015506
      dxy     :     0.019016
      f0      :     0.000669  f :     0.009208
      f+1     :     0.000109
      f-1     :     0.002103
      f+2     :     0.001679
      f-2     :     0.000803
      f+3     :     0.001800
      f-3     :     0.002044
 13 H s       :     0.787379  s :     0.787379
      pz      :     0.064675  p :     0.192743
      px      :     0.058357
      py      :     0.069710
      dz2     :     0.018425  d :     0.066778
      dxz     :     0.008384
      dyz     :     0.011887
      dx2y2   :     0.017227
      dxy     :     0.010855
      f0      :     0.000990  f :     0.009136
      f+1     :     0.000496
      f-1     :     0.002197
      f+2     :     0.001656
      f-2     :     0.001457
      f+3     :     0.000821
      f-3     :     0.001519
 14 H s       :     0.788370  s :     0.788370
      pz      :     0.083938  p :     0.199078
      px      :     0.061933
      py      :     0.053206
      dz2     :     0.019690  d :     0.066690
      dxz     :     0.017916
      dyz     :     0.021707
      dx2y2   :     0.005368
      dxy     :     0.002008
      f0      :     0.002795  f :     0.009181
      f+1     :     0.001947
      f-1     :     0.002445
      f+2     :     0.001200
      f-2     :     0.000654
      f+3     :     0.000097
      f-3     :     0.000042
 15 H s       :     0.787299  s :     0.787299
      pz      :     0.053879  p :     0.193240
      px      :     0.087580
      py      :     0.051781
      dz2     :     0.004415  d :     0.066240
      dxz     :     0.024789
      dyz     :     0.000466
      dx2y2   :     0.013203
      dxy     :     0.023368
      f0      :     0.001220  f :     0.009186
      f+1     :     0.000996
      f-1     :     0.000219
      f+2     :     0.001983
      f-2     :     0.000131
      f+3     :     0.001830
      f-3     :     0.002807
 16 H s       :     0.787899  s :     0.787899
      pz      :     0.057440  p :     0.197838
      px      :     0.087252
      py      :     0.053145
      dz2     :     0.005761  d :     0.066587
      dxz     :     0.023352
      dyz     :     0.003097
      dx2y2   :     0.014021
      dxy     :     0.020356
      f0      :     0.000968  f :     0.009188
      f+1     :     0.001470
      f-1     :     0.000056
      f+2     :     0.001871
      f-2     :     0.000797
      f+3     :     0.001812
      f-3     :     0.002214
 17 H s       :     0.786998  s :     0.786998
      pz      :     0.075983  p :     0.192324
      px      :     0.064443
      py      :     0.051898
      dz2     :     0.020341  d :     0.066411
      dxz     :     0.013413
      dyz     :     0.018444
      dx2y2   :     0.008702
      dxy     :     0.005511
      f0      :     0.002173  f :     0.009223
      f+1     :     0.001983
      f-1     :     0.001531
      f+2     :     0.001549
      f-2     :     0.001457
      f+3     :     0.000366
      f-3     :     0.000163
 18 H s       :     0.787828  s :     0.787828
      pz      :     0.057000  p :     0.191603
      px      :     0.053219
      py      :     0.081383
      dz2     :     0.011506  d :     0.066697
      dxz     :     0.005319
      dyz     :     0.017161
      dx2y2   :     0.014561
      dxy     :     0.018151
      f0      :     0.000565  f :     0.009177
      f+1     :     0.000012
      f-1     :     0.002386
      f+2     :     0.001557
      f-2     :     0.001240
      f+3     :     0.001708
      f-3     :     0.001708
 19 H s       :     0.789089  s :     0.789089
      pz      :     0.059667  p :     0.191919
      px      :     0.050267
      py      :     0.081985
      dz2     :     0.010862  d :     0.066454
      dxz     :     0.005081
      dyz     :     0.018183
      dx2y2   :     0.014425
      dxy     :     0.017903
      f0      :     0.000591  f :     0.009171
      f+1     :     0.000057
      f-1     :     0.002339
      f+2     :     0.001550
      f-2     :     0.001257
      f+3     :     0.001594
      f-3     :     0.001783
 20 H s       :     0.788751  s :     0.788751
      pz      :     0.077276  p :     0.191831
      px      :     0.059940
      py      :     0.054615
      dz2     :     0.018771  d :     0.066171
      dxz     :     0.014387
      dyz     :     0.019247
      dx2y2   :     0.008451
      dxy     :     0.005315
      f0      :     0.002085  f :     0.009202
      f+1     :     0.001897
      f-1     :     0.001529
      f+2     :     0.001672
      f-2     :     0.001463
      f+3     :     0.000385
      f-3     :     0.000172
 21 H s       :     0.790283  s :     0.790283
      pz      :     0.068818  p :     0.192694
      px      :     0.053121
      py      :     0.070755
      dz2     :     0.018437  d :     0.066143
      dxz     :     0.011182
      dyz     :     0.012009
      dx2y2   :     0.013810
      dxy     :     0.010705
      f0      :     0.001109  f :     0.009125
      f+1     :     0.000433
      f-1     :     0.002360
      f+2     :     0.001646
      f-2     :     0.001747
      f+3     :     0.000669
      f-3     :     0.001160


                      *****************************
                      * MAYER POPULATION ANALYSIS *
                      *****************************

  NA   - Mulliken gross atomic population
  ZA   - Total nuclear charge
  QA   - Mulliken gross atomic charge
  VA   - Mayer's total valence
  BVA  - Mayer's bonded valence
  FA   - Mayer's free valence

  ATOM       NA         ZA         QA         VA         BVA        FA
  0 N      7.4505     7.0000    -0.4505     2.9739     2.9739    -0.0000
  1 C      5.8996     6.0000     0.1004     3.9701     3.9701     0.0000
  2 C      5.9287     6.0000     0.0713     4.0081     4.0081    -0.0000
  3 H      0.8119     1.0000     0.1881     0.9861     0.9861    -0.0000
  4 C      6.3034     6.0000    -0.3034     3.8920     3.8920    -0.0000
  5 C      6.2948     6.0000    -0.2948     3.8478     3.8478    -0.0000
  6 H      0.9078     1.0000     0.0922     0.9621     0.9621     0.0000
  7 C      6.2759     6.0000    -0.2759     3.8773     3.8773     0.0000
  8 H      0.9489     1.0000     0.0511     0.9821     0.9821    -0.0000
  9 C      6.3012     6.0000    -0.3012     3.8937     3.8937     0.0000
 10 H      0.9130     1.0000     0.0870     0.9938     0.9938     0.0000
 11 H      0.9048     1.0000     0.0952     0.9941     0.9941     0.0000
 12 H      0.9054     1.0000     0.0946     1.0152     1.0152    -0.0000
 13 H      0.9008     1.0000     0.0992     0.9960     0.9960     0.0000
 14 H      0.9168     1.0000     0.0832     0.9994     0.9994     0.0000
 15 H      0.9040     1.0000     0.0960     0.9988     0.9988    -0.0000
 16 H      0.9107     1.0000     0.0893     0.9935     0.9935     0.0000
 17 H      0.9059     1.0000     0.0941     0.9950     0.9950     0.0000
 18 H      0.8981     1.0000     0.1019     1.0045     1.0045    -0.0000
 19 H      0.9047     1.0000     0.0953     1.0120     1.0120     0.0000
 20 H      0.9066     1.0000     0.0934     0.9995     0.9995     0.0000
 21 H      0.9064     1.0000     0.0936     0.9917     0.9917    -0.0000

  Mayer bond orders larger than 0.100000
B(  0-N ,  1-C ) :   0.9980 B(  0-N ,  2-C ) :   1.0340 B(  0-N ,  3-H ) :   0.9329 
B(  1-C ,  4-C ) :   0.9915 B(  1-C ,  5-C ) :   0.9728 B(  1-C ,  6-H ) :   0.9454 
B(  2-C ,  7-C ) :   0.9856 B(  2-C ,  8-H ) :   0.9531 B(  2-C ,  9-C ) :   0.9838 
B(  4-C , 10-H ) :   0.9605 B(  4-C , 11-H ) :   0.9685 B(  4-C , 12-H ) :   0.9710 
B(  5-C , 13-H ) :   0.9583 B(  5-C , 14-H ) :   0.9660 B(  5-C , 15-H ) :   0.9673 
B(  7-C , 16-H ) :   0.9646 B(  7-C , 17-H ) :   0.9654 B(  7-C , 18-H ) :   0.9603 
B(  9-C , 19-H ) :   0.9658 B(  9-C , 20-H ) :   0.9686 B(  9-C , 21-H ) :   0.9664 


-------
TIMINGS
-------

Total SCF time: 0 days 0 hours 7 min 6 sec 

Total time                  ....     426.622 sec
Sum of individual times     ....     421.540 sec  ( 98.8%)

Fock matrix formation       ....     396.028 sec  ( 92.8%)
  XC integration            ....     166.846 sec  ( 42.1% of F)
    Basis function eval.    ....      11.630 sec  (  7.0% of XC)
    Density eval.           ....      68.155 sec  ( 40.8% of XC)
    XC-Functional eval.     ....       2.185 sec  (  1.3% of XC)
    XC-Potential eval.      ....      75.252 sec  ( 45.1% of XC)
Diagonalization             ....       8.884 sec  (  2.1%)
Density matrix formation    ....       0.231 sec  (  0.1%)
Population analysis         ....       0.740 sec  (  0.2%)
Initial guess               ....       4.151 sec  (  1.0%)
Orbital Transformation      ....       0.000 sec  (  0.0%)
Orbital Orthonormalization  ....       0.000 sec  (  0.0%)
DIIS solution               ....       3.628 sec  (  0.9%)
SOSCF solution              ....       3.977 sec  (  0.9%)
Grid generation             ....       3.900 sec  (  0.9%)

Maximum memory used throughout the entire SCF-calculation: 212.3 MB


-------------------------------------------------------------------------------
                          DFT DISPERSION CORRECTION                            
                                                                               
                              DFTD3 V3.1  Rev 1                                
                          USING Becke-Johnson damping                          
-------------------------------------------------------------------------------
The PW6B95 functional is recognized
Active option DFTDOPT                   ...         4   

molecular C6(AA) [au] = 3119.906294 


            DFT-D V3
 parameters
 s6 scaling factor         :     1.0000 
 a1 scaling factor         :     0.2076 
 s8 scaling factor         :     0.7257 
 a2 scaling factor         :     6.3750 
 ad hoc parameters k1-k3   :    16.0000     1.3333    -4.0000 

 Edisp/kcal,au: -5.392060273225  -0.008592794087 
 E6   /kcal   :  -4.257944475 
 E8   /kcal   :  -1.134115798 
 % E8         :  21.033069753 

-------------------------   ----------------
Dispersion correction           -0.008592794
-------------------------   ----------------


-------------------------   --------------------
FINAL SINGLE POINT ENERGY      -292.931174208307
-------------------------   --------------------


                            ***************************************
                            *     ORCA property calculations      *
                            ***************************************

                                    ---------------------
                                    Active property flags
                                    ---------------------
   (+) Dipole Moment


------------------------------------------------------------------------------
                       ORCA ELECTRIC PROPERTIES CALCULATION
------------------------------------------------------------------------------

Dipole Moment Calculation                       ... on
Quadrupole Moment Calculation                   ... off
Polarizability Calculation                      ... off
GBWName                                         ... DiPA_sp.gbw
Electron density                                ... DiPA_sp.scfp
The origin for moment calculation is the CENTER OF MASS  = (-6.353162, -3.941855 -0.818304)

-------------
DIPOLE MOMENT
-------------
                                X             Y             Z
Electronic contribution:     -0.31029       0.37323      -0.65352
Nuclear contribution   :      0.39927      -0.91199       0.85866
                        -----------------------------------------
Total Dipole Moment    :      0.08897      -0.53876       0.20514
                        -----------------------------------------
Magnitude (a.u.)       :      0.58332
Magnitude (Debye)      :      1.48268



--------------------
Rotational spectrum 
--------------------
 
Rotational constants in cm-1:     0.137357     0.048036     0.045382 
Rotational constants in MHz :  4117.869027  1440.082862  1360.504027 

 Dipole components along the rotational axes: 
x,y,z [a.u.] :    -0.103353     0.302457     0.487952 
x,y,z [Debye]:    -0.262702     0.768785     1.240276 

 

Timings for individual modules:

Sum of individual times         ...      431.259 sec (=   7.188 min)
GTO integral calculation        ...        4.175 sec (=   0.070 min)   1.0 %
SCF iterations                  ...      427.085 sec (=   7.118 min)  99.0 %
                             ****ORCA TERMINATED NORMALLY****
TOTAL RUN TIME: 0 days 0 hours 7 minutes 13 seconds 765 msec
‘DiPA_freqopt.hess’ -> ‘/home/rothe/Calc/Li_Path/THF/DiPA/DiPA_freqopt.hess’
‘DiPA_freqopt.opt’ -> ‘/home/rothe/Calc/Li_Path/THF/DiPA/DiPA_freqopt.opt’
‘DiPA_sp.cpcm’ -> ‘/home/rothe/Calc/Li_Path/THF/DiPA/DiPA_sp.cpcm’
‘DiPA_sp.densities’ -> ‘/home/rothe/Calc/Li_Path/THF/DiPA/DiPA_sp.densities’
‘DiPA_sp.gbw’ -> ‘/home/rothe/Calc/Li_Path/THF/DiPA/DiPA_sp.gbw’
‘DiPA_sp.job’ -> ‘/home/rothe/Calc/Li_Path/THF/DiPA/DiPA_sp.job’
‘DiPA_sp_property.txt’ -> ‘/home/rothe/Calc/Li_Path/THF/DiPA/DiPA_sp_property.txt’
