38
 energy: -62.948128772747 gnorm: 0.000918419733 xtb: 6.4.1 (afa7bdf)
c        -3.33309245032775    0.36665786659447   -0.07303361766073
c        -2.64270703115682   -0.78805027513037    0.29528539601636
c        -1.26707119146491   -0.72614324562039    0.51095923871588
c        -0.59944950755894    0.47179143402977    0.35740086534497
c        -1.29099758644798    1.63459855085094    0.01403849969216
c        -2.66533670804164    1.56472975079767   -0.21120545425937
h        -3.20389866327727    2.45392383914386   -0.50140137250692
h        -0.73232473700497   -1.61980338356517    0.79064709556738
h         0.46625322615271    0.51901093790425    0.52532785749639
c        -0.55110951457967    2.88469970375655   -0.16538602471532
h         0.28416353858386    2.81891396029616   -0.85387367376095
c        -0.79662835109884    4.06076291358603    0.42514898225512
h        -4.39710097964557    0.30282121300104   -0.24541123465672
c        -3.39713515421521   -2.05338880640145    0.43938380156975
o        -2.62074641859702   -3.07814912166515    0.80193252128628
c        -3.25047246665050   -4.34423905929403    0.96568752391541
h        -2.44691751401238   -5.05295192202848    1.14718607522700
h        -3.80872251563003   -4.60964757735606    0.06539461153203
h        -3.94000513208825   -4.31582520468482    1.81204741530797
o        -4.59098491888589   -2.16534555151738    0.24835773230652
c        -1.82065060799403    4.30095058971903    1.45802938057444
h        -0.19889836306873    4.91719519821466    0.15135040620008
c        -2.05099931125824    5.73059190609507    1.80768470605791
o        -2.45292801405108    3.41121858334363    2.00460818746036
c        -1.01022898300683    6.65283800127794    1.92744358576393
c        -1.29486950905777    7.95645093633422    2.28386461116492
c        -2.59868015968163    8.37218939122005    2.50434447003444
c        -3.64436745103640    7.45915500610669    2.39112963713944
c        -3.35471484527457    6.13605205863256    2.05675953021652
h        -4.16491089000008    5.42676889970898    1.98254709021839
h        -2.78516200539235    9.40024038509452    2.77004859438513
h         0.01452400592092    6.34776610355163    1.78643398609306
h        -0.49116539147679    8.66923110622094    2.39127670636626
o        -4.95534588988960    7.74594895493592    2.58508378184167
c        -5.32377481819987    9.06256447714806    2.93824133985219
h        -4.87826194330901    9.35886427374835    3.89272615325498
h        -6.40773006590844    9.04202629154729    3.03456207425047
h        -5.03987045716785    9.77830264370237    2.16074797115318
38
 energy: -62.899835524619 gnorm: 0.073417351344 xtb: 6.4.1 (afa7bdf)
c        -3.23434665163682    0.11354063494039   -0.61522168566065
c        -2.46141946390574   -0.92844902385032   -0.10289065908557
c        -1.14349995119309   -0.60969378664534    0.21991742796540
c        -0.73137775118338    0.70445620364442    0.13324785621060
c        -1.50400617685950    1.74015905881727   -0.39459863609638
c        -2.80788404013339    1.41559135968260   -0.76740285694662
h        -3.42975505972742    2.19467821314123   -1.18120106390485
h        -0.43355730048964   -1.36343472826899    0.52102140740312
h         0.22734929712230    1.08190822221992    0.45654950896467
c        -1.01333074650428    3.11136386252683   -0.54093930492232
h        -0.43468221708517    3.27591061250684   -1.44322218086219
c        -1.26392485628320    4.17508072035946    0.23226502100772
h        -4.27334045557683   -0.06752251015627   -0.84676301764386
c        -3.11878948606240   -2.16572804588711    0.37461659878822
o        -2.33607353614305   -3.03216390023199    1.02346132083469
c        -3.01041856030546   -4.04026444938980    1.76867700696714
h        -3.00603665815670   -3.90358809997949    2.84673850251564
h        -2.49450217139336   -4.97759696237118    1.54993018735102
h        -4.04923481562015   -3.96094237991689    1.44132931594836
o        -4.32141133007645   -2.31409618024447    0.29722021947599
c        -2.20716283601679    4.15209122531630    1.36492884652288
h        -0.73837309185433    5.07549715507602   -0.04839259993915
c        -2.39088193912712    5.52042316402573    1.92449009095106
o        -2.72057494803431    3.14857636481476    1.83345008855311
c        -1.25819328492098    6.09686805179038    2.50138758441095
c        -1.25354475418360    7.36854855092417    3.04015470982222
c        -2.42422643216515    8.10803851009515    2.97666377482811
c        -3.54993347803369    7.52916814914173    2.39562667638171
c        -3.57218644764554    6.24511351907135    1.85063861012532
h        -4.46765615163147    5.76184868111509    1.49064296579135
h        -2.42841768661067    9.11688686919840    3.35675646658212
h        -0.34705456634115    5.53932726985994    2.64986587841357
h        -0.35395927524699    7.72599811200457    3.51818090125685
o        -4.73177619525913    8.18555129447325    2.29102053836308
c        -4.89034245004713    9.46701300444794    2.86255287410374
h        -4.73105666716678    9.54364674669801    3.94240094805222
h        -5.88165888501093    9.77559070427741    2.53585727953963
h        -4.17095871582575   10.21347154938505    2.51231661846544
38
 energy: -62.911662150520 gnorm: 0.085989176306 xtb: 6.4.1 (afa7bdf)
c        -3.24244643869924   -0.24974203917452   -1.19643795046795
c        -2.44109100756657   -0.83499249323673   -0.21615570366329
c        -1.29778952755527   -0.11846809769124    0.13338149604814
c        -0.94293827385125    1.14864373374657   -0.28237643721197
c        -1.91913106398857    1.82812751636428   -1.01286010947888
c        -2.98720318268227    1.07183516336958   -1.49417961029572
h        -3.72958726493911    1.54760762300165   -2.11662259280705
h        -0.63422066787793   -0.64779373846096    0.79843659174081
h        -0.04957657071138    1.51577359478785    0.20060602342662
c        -1.85801463562119    3.28350550778138   -1.15610902162201
h        -1.43795062388321    3.51041471789074   -2.12980434425265
c        -2.22712766243635    4.19412437291432   -0.24689794959010
h        -4.06921647489911   -0.78930696109884   -1.63373002558147
c        -2.77781928131307   -2.08520021050619    0.50120234256667
o        -2.00340865281034   -2.25444778702556    1.57637592039037
c        -2.43608861620238   -3.06287818433197    2.66522057468645
h        -3.25581884117756   -3.67948711323801    2.30640028870228
h        -2.60304348837275   -2.43408840831843    3.54235318610817
h        -1.62892983048105   -3.78554219752951    2.80247628704277
o        -3.69422406642691   -2.80677866426619    0.16381624761145
c        -2.75191034331244    4.01958142102709    1.11959087145477
h        -2.19735078075387    5.23539728329420   -0.53077677419476
c        -2.56432618971047    5.18655526117733    2.02633124142268
o        -3.32895001108355    3.04872346176535    1.58284706500922
c        -1.86548938537625    5.10633016687566    3.23184944163315
c        -1.77400821776564    6.23814624853299    4.01803422478441
c        -2.40972814789643    7.41529746081146    3.65533969230436
c        -3.10458933954299    7.53532462845717    2.45422653744832
c        -3.10325540720655    6.40474219517290    1.63686180307226
h        -3.65718493442329    6.57417654032641    0.72611383460674
h        -2.41466827103377    8.18080369508758    4.41444367304505
h        -1.47705749049365    4.13816449900752    3.50543164242121
h        -1.38488292907521    6.18961003701715    5.02389655481645
o        -3.78170369272833    8.58520622073751    1.92716077334256
c        -3.99948445013681    9.76626884615947    2.66985802848179
h        -4.52984569439985    9.63352625292595    3.61770448878623
h        -4.54241969294593   10.50994360791766    2.08948947488724
h        -3.08120343678198   10.23824404309663    3.03231926617152
38
 energy: -62.916232520520 gnorm: 0.078804259081 xtb: 6.4.1 (afa7bdf)
c        -3.08913957358242   -0.37511512127661   -1.16565555683017
c        -2.19911865509684   -0.56919787227910   -0.10932390980776
c        -1.41440850504910    0.50438693972845    0.30824926582870
c        -1.58367839761587    1.69046356631431   -0.37652543646927
c        -2.63015248092919    1.92836466750354   -1.26902305333803
c        -3.37930060457881    0.84748468203938   -1.73259629444758
h        -4.17700214263082    1.00255097835865   -2.44291701158115
h        -0.70617045455393    0.26454780709205    1.08522005108959
h        -0.97078365759534    2.55371507939751   -0.16366780618462
c        -2.81278449926675    3.33250724519872   -1.63971117557661
h        -2.91032070389977    3.56808406178966   -2.69375784483958
c        -2.90448207536283    4.26984702704928   -0.68833241215444
h        -3.59926108691436   -1.29896089249382   -1.39410331691170
c        -2.18832926370500   -1.79992942760700    0.71298458077439
o        -2.00460995140185   -1.50923421881638    2.00375888023961
c        -2.12392929664289   -2.48314152150497    3.03507929529928
h        -1.07913137330271   -2.68683155374767    3.25376601220206
h        -2.72760433211458   -3.34728808065402    2.74970356758183
h        -2.55489531484957   -1.97180770126784    3.89844117053251
o        -2.45729942971850   -2.93542016987830    0.37739793783680
c        -2.98786022748815    3.93148006113054    0.74404660442384
h        -2.90709709010967    5.27232651101599   -1.08927026389860
c        -2.81035360734116    4.95172713509486    1.81492528764574
o        -3.30736990509388    2.80401074507540    1.08591316042112
c        -3.03510696838610    4.56189118288056    3.13613568678972
c        -3.09638517321305    5.51179004506258    4.13683548508298
c        -2.89672387381004    6.85366749801993    3.85245476230279
c        -2.63759678209399    7.26464705387258    2.54713474081263
c        -2.57528308478451    6.29318001803008    1.54779879778117
h        -2.51185457675549    6.70747553027516    0.55314115179237
h        -2.80506897752424    7.59170211701831    4.63294648765607
h        -3.11041495620238    3.49954037666695    3.30587308331961
h        -3.26002062965594    5.12348686925944    5.13080598789605
o        -2.42945304997977    8.52062379157514    2.08051697254503
c        -2.58130244495824    9.62692403643918    2.94479593375224
h        -3.55129025676341    9.65247372340821    3.45055023685490
h        -2.56043956911875   10.56334198817785    2.39040920399239
h        -1.82051358002335    9.67586232955853    3.72976988282398
38
 energy: -62.914765099479 gnorm: 0.068906167409 xtb: 6.4.1 (afa7bdf)
c        -3.04320880060790   -0.37100307880724   -0.85777787491160
c        -2.00643724255189   -0.33516078826130    0.07467143873346
c        -1.23766938054852    0.82469058626174    0.15505958679074
c        -1.65772518367474    1.97254353348344   -0.48551281664774
c        -2.79015289498118    1.98791223233021   -1.30137311156937
c        -3.32376975336968    0.74052206340350   -1.62339052049899
h        -4.04692328154381    0.60412175931810   -2.41293004069711
h        -0.33898560509901    0.91325470513884    0.74440779416709
h        -1.13788238549364    2.86421257682507   -0.16795778043370
c        -3.34317649244507    3.24341227034209   -1.81153473475955
h        -3.57903541688011    3.28998261101437   -2.86899671189358
c        -3.67170267102443    4.21389920103888   -0.94993074533645
h        -3.70681994680703   -1.20915194212545   -1.00953416257870
c        -1.74502145272040   -1.48812708896388    0.96536670829229
o        -2.02154724427848   -1.11327623956764    2.21731518800529
c        -1.74410119132350   -2.10368839527692    3.20141973288080
h        -2.32619836527403   -1.80324281383403    4.06849039673813
h        -0.66984095498283   -1.96206495835631    3.33750746104946
h        -1.98317464491758   -3.11096304770531    2.85381455133933
o        -1.45923627669515   -2.59417733778010    0.55392761222627
c        -3.68227244381388    3.94942040396243    0.50027370562972
h        -4.13623949351383    5.11375928182675   -1.32433754545164
c        -3.49389297945609    5.05109810975876    1.48516620322315
o        -3.88974899216350    2.81852081665959    0.91035396693727
c        -4.19129384259268    4.90558332646303    2.68539140993030
c        -4.01623371934951    5.70771348747833    3.79597869563602
c        -3.05756066111503    6.70457108587701    3.70328009145193
c        -2.32814632459014    6.84968184911076    2.52565153687669
c        -2.51225845591755    6.02945844997485    1.41226039054129
h        -1.83197476189358    6.07144519270345    0.57532610389648
h        -2.97178147726396    7.35958486363308    4.55525541001454
h        -4.91243499015973    4.10688376753011    2.75684610196106
h        -4.71719567323233    5.64246612518534    4.61447023988191
o        -1.40910372624537    7.84193124510283    2.42903183133444
c        -1.36124298588428    8.81731524307544    3.44896908464236
h        -2.31033009605494    9.35698163627194    3.52184156331837
h        -0.59128090086149    9.46933900864944    3.04070216105683
h        -1.10402253518139    8.36791318178810    4.41294739422094
38
 energy: -62.913279314853 gnorm: 0.074376059728 xtb: 6.4.1 (afa7bdf)
c        -2.88041335888111   -0.30762804021516   -0.70949348190283
c        -1.79661627243412   -0.11886352174628    0.14805750767325
c        -1.23258308967637    1.14882092993614    0.28058825629278
c        -1.70928327423169    2.21340284438765   -0.45681849179534
c        -2.87555835127493    2.06909676116420   -1.20996861772368
c        -3.40155936116497    0.78708630681646   -1.36552154792532
h        -4.30806764182746    0.86746799376937   -1.94578900858131
h        -0.43754869469364    1.28125306280587    0.99696076693771
h        -1.27210699265009    3.20072213606936   -0.44168529623297
c        -3.42773110007408    3.33236038347459   -1.70154849662261
h        -3.12294978903957    3.56809975251654   -2.71523455452914
c        -4.00910163961569    4.25709236833617   -0.92758795943911
h        -3.36624456449951   -1.26966968480395   -0.77542716822584
c        -1.23659931562838   -1.22705777247257    0.95384550867171
o        -1.35639496116380   -0.80622076515141    2.21594692352791
c        -1.32221164726965   -1.78914516918218    3.24504626213839
h        -1.48886698978657   -2.76233666549795    2.79112940052214
h        -2.06042558906147   -1.42158467253443    3.96097334299865
h        -0.30437977480250   -1.73091898166128    3.63647403455700
o        -0.84522769101982   -2.32902376150167    0.62704011402096
c        -4.44035698625711    4.02641832554024    0.46308168941176
h        -4.16799481314728    5.23164135266296   -1.36431481423041
c        -4.11775227341961    5.07267654917254    1.47326175927071
o        -4.92668166673157    2.96760340982467    0.82714970144640
c        -5.07066906206394    5.49331768120200    2.40229012530726
c        -4.68174152266984    6.42842975229144    3.34131288471236
c        -3.38378338046403    6.91020615130888    3.40890206047968
c        -2.38827985473778    6.42123897116519    2.56640859217166
c        -2.81431579379363    5.53862547216295    1.57353885049829
h        -2.10660765819134    5.23436904897805    0.81750644106430
h        -3.21381650434465    7.54192685137328    4.26581703585689
h        -6.09027404931182    5.14206642361688    2.41226733094382
h        -5.35436836596823    6.80247063808259    4.09841250030337
o        -1.07181370930681    6.72090879308796    2.44131495529515
c        -0.30580265492638    7.36960530448616    3.43446977700954
h        -0.67658717847396    8.39027451670895    3.56889356145377
h         0.72015489805559    7.31010440387083    3.07596004448558
h        -0.43198928166475    6.74372090099244    4.32313416937937
38
 energy: -62.908557477284 gnorm: 0.084736068159 xtb: 6.4.1 (afa7bdf)
c        -2.59629480742794   -0.00310968339855   -0.61845776112514
c        -1.55684573515876    0.14333333353684    0.30009651777310
c        -1.04654208385612    1.42358599595505    0.50809899889631
c        -1.63957912979157    2.45017874526037   -0.19813103510416
c        -2.82705150662517    2.35569952763247   -0.92561987255353
c        -3.32285191249410    1.06428882598708   -1.10130422219243
h        -4.17263918285206    0.84299588667099   -1.72885490393181
h        -0.36715354751205    1.53126469002896    1.33854711074228
h        -1.12805540890862    3.39456815671977   -0.31048601493317
c        -3.51011485741952    3.53687148162334   -1.45537250373905
h        -3.22273380527754    3.80173056789736   -2.46694847283198
c        -4.50846949249304    4.24795175714073   -0.91705217005908
h        -2.92540788957045   -1.01329123093686   -0.81112630592363
c        -1.06814055070777   -1.02840824336888    1.06114627670972
o        -1.01106145452112   -0.69973238470010    2.35461793588479
c        -0.56427931969418   -1.67062794396497    3.29488485123557
h         0.47857506106605   -1.37358668110365    3.36656077298163
h        -0.76001392152803   -2.67031747349458    2.90128487816849
h        -1.16028555988806   -1.50442432933980    4.19474074598694
o        -0.98404224647480   -2.12976140643391    0.55691294878760
c        -5.10662928164240    4.17177992080378    0.42814540290229
h        -4.98300296654049    5.03889066571010   -1.47826224355168
c        -4.49936759114545    5.16241905413612    1.36037992211959
o        -6.06788673795921    3.48542458028374    0.73644186093610
c        -5.21283148652177    6.11903781366232    2.08421201277372
c        -4.48350748371417    6.97908844008751    2.88162180382699
c        -3.10864480866135    6.88876896279462    3.03317094952998
c        -2.41560085562475    5.88098786825590    2.36685365373612
c        -3.11864127859353    5.07550904789267    1.47061621243057
h        -2.57991006439818    4.24229859403896    1.04571999764759
h        -2.50184698134719    7.51848119495689    3.66366436812198
h        -6.28189339988982    6.22458269055496    1.98914243140106
h        -4.99952937718183    7.83237303499562    3.29533678293192
o        -1.07856096573053    5.65598693108978    2.38209915197986
c        -0.34374269068565    6.01417121840260    3.53348210682495
h        -0.19820131516569    7.09612887184654    3.60765689935301
h         0.62144109173652    5.51111261408183    3.53019702794003
h        -0.88583348809397    5.58052196201848    4.37933353690700
38
 energy: -62.913382312121 gnorm: 0.073901730404 xtb: 6.4.1 (afa7bdf)
c        -2.80145492789714    0.15576544387249   -0.21139151028492
c        -1.64842241988501    0.34337622650254    0.55081592106009
c        -1.09644180898645    1.62304878954727    0.57266362955007
c        -1.72048258072579    2.71706888973497    0.00871359889264
c        -2.90001052238324    2.53934461160966   -0.71612081604093
c        -3.36035957325358    1.23180235692386   -0.86723882275574
h        -4.22970752263435    1.09774027615942   -1.49269092774106
h        -0.15752210052833    1.90594814143483    1.02122277399411
h        -1.21312472679861    3.65359122223251    0.18666154473659
c        -3.69897330732495    3.53951173407806   -1.42584244458512
h        -3.41375745625800    3.58568117059614   -2.47109095464534
c        -4.80426916689462    4.19369579466928   -1.04835045557149
h        -3.28622408444326   -0.80698618890250   -0.27472812514327
c        -1.04744520719423   -0.83734533614215    1.21091504882257
o        -0.34399599762481   -0.48017420870095    2.28884955443929
c         0.27663178092457   -1.51665650017313    3.04176386730936
h        -0.05375498055255   -1.27989117729035    4.04958477416941
h         1.35035463355322   -1.31982410160192    3.01032547331809
h         0.01619038808844   -2.47684757419309    2.59144054397754
o        -1.14236631170913   -1.97853971788048    0.80722214672339
c        -5.48246385732159    4.43642583296695    0.23784077306107
h        -5.27381585372769    4.68355208702255   -1.88816581484493
c        -4.66677263917075    5.16176653661522    1.25160727047496
o        -6.67354262733939    4.27564319978534    0.45144448790760
c        -4.88988339937439    6.49961871160632    1.58093411888591
c        -4.00123197468115    7.24152318894550    2.33415342025846
c        -2.80764933134080    6.68414926178962    2.76550811067708
c        -2.58500300495779    5.34718154404072    2.44479439270635
c        -3.47164456624450    4.59587637632541    1.67297137853150
h        -3.23609419609173    3.56481401178776    1.45748546133102
h        -2.09191921063738    7.22843279782073    3.36027601355821
h        -5.87801830108222    6.84260955608797    1.31822136586626
h        -4.15893777906555    8.26766936424402    2.63027192716950
o        -1.40328810916438    4.72717758513728    2.68495783569112
c        -0.61653946131998    5.15976570951326    3.77483427826797
h        -0.04140423507033    6.07240583574479    3.59146572922455
h         0.08157640105689    4.33407939905457    3.89947312159545
h        -1.18640958641361    5.22617988010779    4.70661534107776
38
 energy: -62.916461109344 gnorm: 0.075464069614 xtb: 6.4.1 (afa7bdf)
c        -3.04657158391619    0.20203986141128    0.30110739986628
c        -1.74484425989139    0.49806802580654    0.70547762140011
c        -1.24616291642824    1.78536978652611    0.51340237964539
c        -2.03183912000302    2.73406807451803   -0.10871576280602
c        -3.31140486447408    2.44145284259846   -0.58342076242148
c        -3.78389250788187    1.14495650803762   -0.38272856168302
h        -4.78835676155711    0.95983324395871   -0.73159786501332
h        -0.22025520147507    1.84536424843041    0.84008510752776
h        -1.71621122880547    3.75408957139276   -0.27022960491003
c        -3.87468293852716    3.42783583505129   -1.50653884411210
h        -3.45926789033601    3.42449187982685   -2.50825901364354
c        -4.74853810892706    4.41467572978909   -1.27274393910539
h        -3.42073193623139   -0.79760972651692    0.46422734712949
c        -0.90217698536597   -0.52272514109263    1.36797372413388
o         0.26920770215244   -0.13274425249905    1.87800082807299
c         1.02654224725903   -1.13297364681494    2.55056301497536
h         0.57412054343062   -2.11277960264309    2.42324017955057
h         0.95580776820264   -0.99365199729887    3.63139521466089
h         2.05037036480899   -1.07841963957727    2.17454764140056
o        -1.22241272400372   -1.69386771234534    1.35467883217036
c        -5.46594042184633    4.74063805904034   -0.02685621859104
h        -5.01045335817445    5.08453041311786   -2.07798813347532
c        -4.55797295991989    5.20125919072767    1.06062573987339
o        -6.67525282120047    4.83693337578297    0.10892647815675
c        -4.35535552455998    6.58218671524091    1.05236014375923
c        -3.42747388310985    7.10185223713827    1.93352204179616
c        -2.67747343393549    6.30328172642952    2.78273139690164
c        -2.88904725882337    4.92670896835352    2.76875708332178
c        -3.75535906928478    4.36892464902632    1.82818069335208
h        -3.99922080684796    3.31748550961847    1.82431723879156
h        -1.92250530497870    6.79658580040415    3.37344048919341
h        -4.99721144228175    7.26971174504952    0.52472239856506
h        -3.22633531934175    8.15910938120958    1.84817652865368
o        -2.21623997567212    4.10842576434679    3.61508823751500
c        -0.93332702078934    4.54298367978690    4.01412500581714
h        -0.41373620290974    4.91733357858703    3.12687978242582
h        -0.36445023598835    3.70397725390761    4.41049087479916
h        -0.94503314848521    5.34384391561356    4.75968828156604
38
 energy: -62.914842601602 gnorm: 0.063280808751 xtb: 6.4.1 (afa7bdf)
c        -3.20961425305244    0.48114586382609    0.67238644102397
c        -1.85065138738088    0.66552834456332    0.92707253119498
c        -1.26194773981520    1.87005996079528    0.54595129690820
c        -1.95409802474080    2.74546460706834   -0.26580063341491
c        -3.30946522221230    2.56369717113590   -0.54543854760876
c        -3.93506505981810    1.44768004617144    0.00913810778239
h        -4.98948973062140    1.27198069207498   -0.14001681261649
h        -0.27015903276704    2.11311602140948    0.89248626990917
h        -1.42713445798191    3.58453350186785   -0.69524717083034
c        -4.08549871934939    3.20642250538926   -1.60706782662093
h        -3.93644839150271    2.76137684555876   -2.58468866572287
c        -4.94371950557056    4.21476297768683   -1.40998289229296
h        -3.74490155180944   -0.41152677401134    0.95962580151277
c        -0.93110297655687   -0.31787349263682    1.54218183208491
o         0.34190142238280    0.04951116807239    1.37234915908678
c         1.48389183427234   -0.55877524538980    1.96581347644436
h         2.29825392641043   -0.55988573749644    1.24627934604613
h         1.30410172760004   -1.60235929013734    2.23268422065367
h         1.73926094429745    0.02259820146662    2.85428365032158
o        -1.32328711708979   -1.32107944395839    2.10260312722417
c        -5.33297437749296    4.82953265182194   -0.12791711346259
h        -5.63639516377668    4.49689286007630   -2.18865244682918
c        -4.33598570915645    5.29147720156758    0.87797286547137
o        -6.50805000867857    5.04459398486176    0.12326431834716
c        -3.59372127402090    6.43917719509289    0.59528703826694
c        -2.78672692440590    6.90320439983163    1.61553299290909
c        -2.49143902958776    6.06900051847699    2.68243554533152
c        -3.05007479011725    4.80294337353337    2.84034937738866
c        -4.11861891789373    4.49907940528841    1.99643964315578
h        -4.69247109991949    3.60444265609539    2.18439317692630
h        -1.85713174282699    6.43605644995723    3.47312337969875
h        -3.74939372665310    7.00024944943328   -0.31247687396703
h        -2.40115431784580    7.91155905732825    1.62490969318544
o        -2.76124954360027    3.83831336838062    3.74842560807513
c        -1.50966316068608    3.74389589469565    4.39538268464131
h        -0.68745835348738    3.65138898604346    3.67932522670449
h        -1.51109006827535    2.82587368550368    4.98009771995923
h        -1.26554957723198    4.58510321339206    5.05124666416570
38
 energy: -62.928805292581 gnorm: 0.057924797718 xtb: 6.4.1 (afa7bdf)
c        -3.00591442512851    0.80756952560504    1.05078124811910
c        -1.66838385689313    1.20330943899472    1.05740403239865
c        -1.29349337670344    2.20710900299746    0.16602007155918
c        -2.22120894407976    2.91490824793893   -0.57066884823266
c        -3.54748170238532    2.48089669762585   -0.60052762728403
c        -3.92290361507619    1.42112359674237    0.22431419683303
h        -4.95492954655475    1.10550332683137    0.20897894995642
h        -0.27035566726877    2.54161412922911    0.10196443726062
h        -1.87820535235000    3.72471080671103   -1.19734252149853
c        -4.44801756945374    3.15849087575536   -1.53448794030617
h        -4.40119546997857    2.78459811245791   -2.55136356265449
c        -5.13243665685073    4.30293426310847   -1.41635354137582
h        -3.30156324043390    0.06839866527683    1.78024789981118
c        -0.70015902772805    0.35005674460767    1.78232362861656
o         0.50771661263240    0.33100735076096    1.21221102799584
c         1.51178373942743   -0.57574414053124    1.65493587379682
h         2.27423906349395   -0.09684359001483    2.26340309229613
h         1.97271854313642   -0.89171955115109    0.71668709132854
h         1.10740404954127   -1.46438121434545    2.14420975810051
o        -0.94568361878540   -0.25866974235271    2.80382856901213
c        -5.40639724231476    4.96877592508063   -0.12998103867829
h        -5.62285263169572    4.68897681491062   -2.29736797409475
c        -4.19927965471811    5.15646533963678    0.72256432175097
o        -6.52359843729900    5.32438644345208    0.20994375675038
c        -3.15844009638738    6.05699141158189    0.49064015625341
c        -2.06228561541835    6.04240167937415    1.33069694351310
c        -2.05560473905141    5.25082695681641    2.46856200967227
c        -3.12878470403084    4.40642867415492    2.74276567316556
c        -4.17049349911053    4.30749403669958    1.82007494002390
h        -5.00000090437428    3.65663996054487    2.05097358519627
h        -1.17055839450478    5.19871506684228    3.08194634773805
h        -3.28835340910548    6.75927530617559   -0.31743852385550
h        -1.18963120572176    6.65051363781738    1.14574455308076
o        -3.30516203112341    3.72103217120489    3.89933653237542
c        -2.24147801906516    3.52442848259071    4.80700381301530
h        -1.27637877364228    3.30133002897456    4.34210911557441
h        -2.54778870607888    2.64681302792944    5.37323994643602
h        -2.10635149633108    4.38755373519557    5.46589255293418
38
 energy: -62.892961825213 gnorm: 0.065572835635 xtb: 6.4.1 (afa7bdf)
c        -2.80700656280516    1.46350338246790    1.25806391162999
c        -1.47633036226872    1.74699015310589    0.95052843856606
c        -1.15735935091363    2.42418666672830   -0.22521991157187
c        -2.17719150033252    2.89870864902964   -1.02466834729091
c        -3.51777509349006    2.62110321373668   -0.75258769180653
c        -3.79965242656871    1.89775675989572    0.40574721391923
h        -4.80955946713399    1.64145078205040    0.68739213977991
h        -0.13578245586777    2.75916466959261   -0.30875413626945
h        -1.92197143670034    3.57835448251782   -1.82410302874073
c        -4.65915197644393    3.13485744543927   -1.51133402886180
h        -4.98134605785604    2.50018876401676   -2.32950930729860
c        -5.52271527182900    4.09721875997350   -1.16455594212518
h        -3.08990305635548    0.97595651656549    2.17902591394796
c        -0.43460115648794    1.12465697457644    1.79817788085647
o         0.44068638395836    0.57874319658692    0.94952914516187
c         1.32316181087301   -0.41226534660964    1.46478979047631