! Job execution by suborca V 5.02 !
Job started from clu.thch.uni-bonn.de, running /software/cluster/orca_5_0_2_linux_x86-64_openmpi411/orca from /software/cluster/orca_5_0_2_linux_x86-64_openmpi411 on boar231 in /tmp1/rothe/LiOH_freqot__PPp2Lf
Going to copy the following really necessary files:  

                                 *****************
                                 * O   R   C   A *
                                 *****************

                                            #,                                       
                                            ###                                      
                                            ####                                     
                                            #####                                    
                                            ######                                   
                                           ########,                                 
                                     ,,################,,,,,                         
                               ,,#################################,,                 
                          ,,##########################################,,             
                       ,#########################################, ''#####,          
                    ,#############################################,,   '####,        
                  ,##################################################,,,,####,       
                ,###########''''           ''''###############################       
              ,#####''   ,,,,##########,,,,          '''####'''          '####       
            ,##' ,,,,###########################,,,                        '##       
           ' ,,###''''                  '''############,,,                           
         ,,##''                                '''############,,,,        ,,,,,,###''
      ,#''                                            '''#######################'''  
     '                                                          ''''####''''         
             ,#######,   #######,   ,#######,      ##                                
            ,#'     '#,  ##    ##  ,#'     '#,    #''#        ######   ,####,        
            ##       ##  ##   ,#'  ##            #'  '#       #        #'  '#        
            ##       ##  #######   ##           ,######,      #####,   #    #        
            '#,     ,#'  ##    ##  '#,     ,#' ,#      #,         ##   #,  ,#        
             '#######'   ##     ##  '#######'  #'      '#     #####' # '####'        



                  #######################################################
                  #                        -***-                        #
                  #          Department of theory and spectroscopy      #
                  #    Directorship and core code : Frank Neese         #
                  #        Max Planck Institute fuer Kohlenforschung    #
                  #                Kaiser Wilhelm Platz 1               #
                  #                 D-45470 Muelheim/Ruhr               #
                  #                      Germany                        #
                  #                                                     #
                  #                  All rights reserved                #
                  #                        -***-                        #
                  #######################################################


                         Program Version 5.0.2 -  RELEASE  -


 With contributions from (in alphabetic order):
   Daniel Aravena         : Magnetic Suceptibility
   Michael Atanasov       : Ab Initio Ligand Field Theory (pilot matlab implementation)
   Alexander A. Auer      : GIAO ZORA, VPT2 properties, NMR spectrum
   Ute Becker             : Parallelization
   Giovanni Bistoni       : ED, misc. LED, open-shell LED, HFLD
   Martin Brehm           : Molecular dynamics
   Dmytro Bykov           : SCF Hessian
   Vijay G. Chilkuri      : MRCI spin determinant printing, contributions to CSF-ICE
   Dipayan Datta          : RHF DLPNO-CCSD density
   Achintya Kumar Dutta   : EOM-CC, STEOM-CC
   Dmitry Ganyushin       : Spin-Orbit,Spin-Spin,Magnetic field MRCI
   Miquel Garcia          : C-PCM and meta-GGA Hessian, CC/C-PCM, Gaussian charge scheme
   Yang Guo               : DLPNO-NEVPT2, F12-NEVPT2, CIM, IAO-localization
   Andreas Hansen         : Spin unrestricted coupled pair/coupled cluster methods
   Benjamin Helmich-Paris : MC-RPA, TRAH-SCF, COSX integrals
   Lee Huntington         : MR-EOM, pCC
   Robert Izsak           : Overlap fitted RIJCOSX, COSX-SCS-MP3, EOM
   Marcus Kettner         : VPT2
   Christian Kollmar      : KDIIS, OOCD, Brueckner-CCSD(T), CCSD density, CASPT2, CASPT2-K
   Simone Kossmann        : Meta GGA functionals, TD-DFT gradient, OOMP2, MP2 Hessian
   Martin Krupicka        : Initial AUTO-CI
   Lucas Lang             : DCDCAS
   Marvin Lechner         : AUTO-CI (C++ implementation), FIC-MRCC
   Dagmar Lenk            : GEPOL surface, SMD
   Dimitrios Liakos       : Extrapolation schemes; Compound Job, initial MDCI parallelization
   Dimitrios Manganas     : Further ROCIS development; embedding schemes
   Dimitrios Pantazis     : SARC Basis sets
   Anastasios Papadopoulos: AUTO-CI, single reference methods and gradients
   Taras Petrenko         : DFT Hessian,TD-DFT gradient, ASA, ECA, R-Raman, ABS, FL, XAS/XES, NRVS
   Peter Pinski           : DLPNO-MP2, DLPNO-MP2 Gradient
   Christoph Reimann      : Effective Core Potentials
   Marius Retegan         : Local ZFS, SOC
   Christoph Riplinger    : Optimizer, TS searches, QM/MM, DLPNO-CCSD(T), (RO)-DLPNO pert. Triples
   Tobias Risthaus        : Range-separated hybrids, TD-DFT gradient, RPA, STAB
   Michael Roemelt        : Original ROCIS implementation
   Masaaki Saitow         : Open-shell DLPNO-CCSD energy and density
   Barbara Sandhoefer     : DKH picture change effects
   Avijit Sen             : IP-ROCIS
   Kantharuban Sivalingam : CASSCF convergence, NEVPT2, FIC-MRCI
   Bernardo de Souza      : ESD, SOC TD-DFT
   Georgi Stoychev        : AutoAux, RI-MP2 NMR, DLPNO-MP2 response
   Willem Van den Heuvel  : Paramagnetic NMR
   Boris Wezisla          : Elementary symmetry handling
   Frank Wennmohs         : Technical directorship


 We gratefully acknowledge several colleagues who have allowed us to
 interface, adapt or use parts of their codes:
   Stefan Grimme, W. Hujo, H. Kruse, P. Pracht,  : VdW corrections, initial TS optimization,
                  C. Bannwarth, S. Ehlert          DFT functionals, gCP, sTDA/sTD-DF
   Ed Valeev, F. Pavosevic, A. Kumar             : LibInt (2-el integral package), F12 methods
   Garnet Chan, S. Sharma, J. Yang, R. Olivares  : DMRG
   Ulf Ekstrom                                   : XCFun DFT Library
   Mihaly Kallay                                 : mrcc  (arbitrary order and MRCC methods)
   Jiri Pittner, Ondrej Demel                    : Mk-CCSD
   Frank Weinhold                                : gennbo (NPA and NBO analysis)
   Christopher J. Cramer and Donald G. Truhlar   : smd solvation model
   Lars Goerigk                                  : TD-DFT with DH, B97 family of functionals
   V. Asgeirsson, H. Jonsson                     : NEB implementation
   FAccTs GmbH                                   : IRC, NEB, NEB-TS, DLPNO-Multilevel, CI-OPT
                                                   MM, QMMM, 2- and 3-layer-ONIOM, Crystal-QMMM,
                                                   LR-CPCM, SF, NACMEs, symmetry and pop. for TD-DFT,
                                                   nearIR, NL-DFT gradient (VV10), updates on ESD,
                                                   ML-optimized integration grids
   S Lehtola, MJT Oliveira, MAL Marques          : LibXC Library
   Liviu Ungur et al                             : ANISO software


 Your calculation uses the libint2 library for the computation of 2-el integrals
 For citations please refer to: http://libint.valeyev.net

 Your ORCA version has been built with support for libXC version: 5.1.0
 For citations please refer to: https://tddft.org/programs/libxc/

 This ORCA versions uses:
   CBLAS   interface :  Fast vector & matrix operations
   LAPACKE interface :  Fast linear algebra routines
   SCALAPACK package :  Parallel linear algebra routines
   Shared memory     :  Shared parallel matrices
   BLAS/LAPACK       :  OpenBLAS 0.3.15  USE64BITINT DYNAMIC_ARCH NO_AFFINITY Barcelona SINGLE_THREADED
        Core in use  :  Barcelona
   Copyright (c) 2011-2014, The OpenBLAS Project


Your calculation utilizes the atom-pairwise dispersion correction
with the Becke-Johnson damping scheme (D3BJ)
Cite in your paper:
S.Grimme, S.Ehrlich, L.Goerigk, J Comput Chem, (2011), 32, 1456–1465 
S.Grimme, J.Antony, S.Ehrlich and H.Krieg, J.Chem.Phys., 132, (2010), 154104 
   

================================================================================

----- Orbital basis set information -----
Your calculation utilizes the basis: def2-TZVP
   F. Weigend and R. Ahlrichs, Phys. Chem. Chem. Phys. 7, 3297 (2005).

----- AuxJ basis set information -----
Your calculation utilizes the auxiliary basis: def2/J
   F. Weigend, Phys. Chem. Chem. Phys. 8, 1057 (2006).

================================================================================
                                        WARNINGS
                       Please study these warnings very carefully!
================================================================================


WARNING: Geometry Optimization
  ===> : Switching off AutoStart
         For restart on a previous wavefunction, please use MOREAD

INFO   : the flag for use of the SHARK integral package has been found!

================================================================================
                                       INPUT FILE
================================================================================
NAME = LiOH_freqot.inp
|  1> ! TPSS D3BJ def2-TZVP RI def2/J CPCM(THF)
|  2> ! Opt numfreq Pal2
|  3> 
|  4> * xyz 0 1
|  5> O       -0.3644166819      1.2309282245     -0.2000815217                 
|  6> H        0.6146330111      1.3455669964     -0.1056197479                 
|  7> Li      -1.0950552472      2.5505350261      0.8872678738                 
|  8> *
|  9> 
| 10>                          ****END OF INPUT****
================================================================================

                       *****************************
                       * Geometry Optimization Run *
                       *****************************

Geometry optimization settings:
Update method            Update   .... BFGS
Choice of coordinates    CoordSys .... Z-matrix Internals
Initial Hessian          InHess   .... Almoef's Model

Convergence Tolerances:
Energy Change            TolE     ....  5.0000e-06 Eh
Max. Gradient            TolMAXG  ....  3.0000e-04 Eh/bohr
RMS Gradient             TolRMSG  ....  1.0000e-04 Eh/bohr
Max. Displacement        TolMAXD  ....  4.0000e-03 bohr
RMS Displacement         TolRMSD  ....  2.0000e-03 bohr
Strict Convergence                ....  False
------------------------------------------------------------------------------
                        ORCA OPTIMIZATION COORDINATE SETUP
------------------------------------------------------------------------------

The optimization will be done in new redundant internal coordinates
Making redundant internal coordinates   ...  (new redundants) done
Evaluating the initial hessian          ...  (Almloef) done
Evaluating the coordinates              ...  done
Calculating the B-matrix                .... done
Calculating the G-matrix                .... done
Diagonalizing the G-matrix              .... done
The first mode is                       ....    0
The number of degrees of freedom        ....    3

    -----------------------------------------------------------------
                    Redundant Internal Coordinates


    -----------------------------------------------------------------
         Definition                    Initial Value    Approx d2E/dq
    -----------------------------------------------------------------
      1. B(H   1,O   0)                  0.9903         0.465263   
      2. B(Li  2,O   0)                  1.8594         0.484115   
      3. A(H   1,O   0,Li  2)          104.5100         0.376971   
    -----------------------------------------------------------------

Number of atoms                         .... 3
Number of degrees of freedom            .... 3

         *************************************************************
         *                GEOMETRY OPTIMIZATION CYCLE   1            *
         *************************************************************
---------------------------------
CARTESIAN COORDINATES (ANGSTROEM)
---------------------------------
  O     -0.364417    1.230928   -0.200082
  H      0.614633    1.345567   -0.105620
  Li    -1.095055    2.550535    0.887268

----------------------------
CARTESIAN COORDINATES (A.U.)
----------------------------
  NO LB      ZA    FRAG     MASS         X           Y           Z
   0 O     8.0000    0    15.999   -0.688648    2.326117   -0.378099
   1 H     1.0000    0     1.008    1.161488    2.542753   -0.199592
   2 Li    3.0000    0     6.941   -2.069355    4.819813    1.676693

--------------------------------
INTERNAL COORDINATES (ANGSTROEM)
--------------------------------
 O      0   0   0     0.000000000000     0.00000000     0.00000000
 H      1   0   0     0.990254197717     0.00000000     0.00000000
 Li     1   2   0     1.859441725849   104.50998641     0.00000000

---------------------------
INTERNAL COORDINATES (A.U.)
---------------------------
 O      0   0   0     0.000000000000     0.00000000     0.00000000
 H      1   0   0     1.871309236651     0.00000000     0.00000000
 Li     1   2   0     3.513835623840   104.50998641     0.00000000

---------------------
BASIS SET INFORMATION
---------------------
There are 3 groups of distinct atoms

 Group   1 Type O   : 11s6p2d1f contracted to 5s3p2d1f pattern {62111/411/11/1}
 Group   2 Type H   : 5s1p contracted to 3s1p pattern {311/1}
 Group   3 Type Li  : 11s3p contracted to 5s3p pattern {62111/111}

Atom   0O    basis set group =>   1
Atom   1H    basis set group =>   2
Atom   2Li   basis set group =>   3
---------------------------------
AUXILIARY/J BASIS SET INFORMATION
---------------------------------
There are 3 groups of distinct atoms

 Group   1 Type O   : 12s5p4d2f1g contracted to 6s4p3d1f1g pattern {711111/2111/211/2/1}
 Group   2 Type H   : 5s2p1d contracted to 3s1p1d pattern {311/2/1}
 Group   3 Type Li  : 12s5p4d2f1g contracted to 6s4p3d1f1g pattern {711111/2111/211/2/1}

Atom   0O    basis set group =>   1
Atom   1H    basis set group =>   2
Atom   2Li   basis set group =>   3


           ************************************************************
           *        Program running with 2 parallel MPI-processes     *
           *              working on a common directory               *
           ************************************************************
------------------------------------------------------------------------------
                           ORCA GTO INTEGRAL CALCULATION
                           -- RI-GTO INTEGRALS CHOSEN --
------------------------------------------------------------------------------
------------------------------------------------------------------------------
                   ___                                                        
                  /   \      - P O W E R E D   B Y -                         
                 /     \                                                     
                 |  |  |   _    _      __       _____    __    __             
                 |  |  |  | |  | |    /  \     |  _  \  |  |  /  |          
                  \  \/   | |  | |   /    \    | | | |  |  | /  /          
                 / \  \   | |__| |  /  /\  \   | |_| |  |  |/  /          
                |  |  |   |  __  | /  /__\  \  |    /   |      \           
                |  |  |   | |  | | |   __   |  |    \   |  |\   \          
                \     /   | |  | | |  |  |  |  | |\  \  |  | \   \       
                 \___/    |_|  |_| |__|  |__|  |_| \__\ |__|  \__/        
                                                                              
                      - O R C A' S   B I G   F R I E N D -                    
                                      &                                       
                       - I N T E G R A L  F E E D E R -                       
                                                                              
 v1 FN, 2020, v2 2021                                                         
------------------------------------------------------------------------------


Reading SHARK input file LiOH_freqot.SHARKINP.tmp ... ok
----------------------
SHARK INTEGRAL PACKAGE
----------------------

Number of atoms                             ...      3
Number of basis functions                   ...     51
Number of shells                            ...     23
Maximum angular momentum                    ...      3
Integral batch strategy                     ... SHARK/LIBINT Hybrid
RI-J (if used) integral strategy            ... SPLIT-RIJ (Revised 2003 algorithm where possible)
Printlevel                                  ...      1
Contraction scheme used                     ... SEGMENTED contraction
Coulomb Range Separation                    ... NOT USED
Exchange Range Separation                   ... NOT USED
Finite Nucleus Model                        ... NOT USED
Auxiliary Coulomb fitting basis             ... AVAILABLE
   # of basis functions in Aux-J            ...    109
   # of shells in Aux-J                     ...     35
   Maximum angular momentum in Aux-J        ...      4
Auxiliary J/K fitting basis                 ... NOT available
Auxiliary Correlation fitting basis         ... NOT available
Auxiliary 'external' fitting basis          ... NOT available
Integral threshold                          ...     2.500000e-11
Primitive cut-off                           ...     2.500000e-12
Primitive pair pre-selection threshold      ...     2.500000e-12

Calculating pre-screening integrals         ... done (  0.1 sec) Dimension = 23
Organizing shell pair data                  ... done (  0.0 sec)
Shell pair information
Total number of shell pairs                 ...       276
Shell pairs after pre-screening             ...       273
Total number of primitive shell pairs       ...       861
Primitive shell pairs kept                  ...       753
          la=0 lb=0:     89 shell pairs
          la=1 lb=0:     90 shell pairs
          la=1 lb=1:     28 shell pairs
          la=2 lb=0:     26 shell pairs
          la=2 lb=1:     14 shell pairs
          la=2 lb=2:      3 shell pairs
          la=3 lb=0:     13 shell pairs
          la=3 lb=1:      7 shell pairs
          la=3 lb=2:      2 shell pairs
          la=3 lb=3:      1 shell pairs

Calculating one electron integrals          ... done (  0.0 sec)
Calculating RI/J V-Matrix + Cholesky decomp.... done (  0.0 sec)
Calculating Nuclear repulsion               ... done (  0.0 sec) ENN=     11.790882390231 Eh

SHARK setup successfully completed in   0.3 seconds

Maximum memory used throughout the entire GTOINT-calculation: 13.9 MB


           ************************************************************
           *        Program running with 2 parallel MPI-processes     *
           *              working on a common directory               *
           ************************************************************
-------------------------------------------------------------------------------
                                 ORCA SCF
-------------------------------------------------------------------------------

------------
SCF SETTINGS
------------
Hamiltonian:
 Density Functional     Method          .... DFT(GTOs)
 Exchange Functional    Exchange        .... TPSS
 Correlation Functional Correlation     .... TPSS
 LDA part of GGA corr.  LDAOpt          .... PW91-LDA
 Gradients option       PostSCFGGA      .... off
   Density functional embedding theory  .... OFF
   NL short-range parameter             ....  5.000000
 RI-approximation to the Coulomb term is turned on
   Number of AuxJ basis functions       .... 109


General Settings:
 Integral files         IntName         .... LiOH_freqot
 Hartree-Fock type      HFTyp           .... RHF
 Total Charge           Charge          ....    0
 Multiplicity           Mult            ....    1
 Number of Electrons    NEL             ....   12
 Basis Dimension        Dim             ....   51
 Nuclear Repulsion      ENuc            ....     11.7908823902 Eh

Convergence Acceleration:
 DIIS                   CNVDIIS         .... on
   Start iteration      DIISMaxIt       ....    12
   Startup error        DIISStart       ....  0.200000
   # of expansion vecs  DIISMaxEq       ....     5
   Bias factor          DIISBfac        ....   1.050
   Max. coefficient     DIISMaxC        ....  10.000
 Trust-Rad. Augm. Hess. CNVTRAH         .... auto
   Auto Start mean grad. ratio tolernc. ....  1.125000
   Auto Start start iteration           ....    20
   Auto Start num. interpolation iter.  ....    10
   Max. Number of Micro iterations      ....    16
   Max. Number of Macro iterations      .... Maxiter - #DIIS iter
   Number of Davidson start vectors     ....     2
   Converg. threshold I  (grad. norm)   ....   1.000e-05
   Converg. threshold II (energy diff.) ....   1.000e-08
   Grad. Scal. Fac. for Micro threshold ....   0.100
   Minimum threshold for Micro iter.    ....   0.010
   NR start threshold (gradient norm)   ....   0.001
   Initial trust radius                 ....   0.400
   Minimum AH scaling param. (alpha)    ....   1.000
   Maximum AH scaling param. (alpha)    .... 1000.000
   Orbital update algorithm             .... Taylor
   White noise on init. David. guess    .... on
   Maximum white noise                  ....   0.010
   Quad. conv. algorithm                .... NR
 SOSCF                  CNVSOSCF        .... on
   Start iteration      SOSCFMaxIt      ....   150
   Startup grad/error   SOSCFStart      ....  0.003300
 Level Shifting         CNVShift        .... on
   Level shift para.    LevelShift      ....    0.2500
   Turn off err/grad.   ShiftErr        ....    0.0010
 Zerner damping         CNVZerner       .... off
 Static damping         CNVDamp         .... on
   Fraction old density DampFac         ....    0.7000
   Max. Damping (<1)    DampMax         ....    0.9800
   Min. Damping (>=0)   DampMin         ....    0.0000
   Turn off err/grad.   DampErr         ....    0.1000
 Fernandez-Rico         CNVRico         .... off

SCF Procedure:
 Maximum # iterations   MaxIter         ....   125
 SCF integral mode      SCFMode         .... Direct
   Integral package                     .... SHARK and LIBINT hybrid scheme
 Reset frequency        DirectResetFreq ....    20
 Integral Threshold     Thresh          ....  2.500e-11 Eh
 Primitive CutOff       TCut            ....  2.500e-12 Eh

Convergence Tolerance:
 Convergence Check Mode ConvCheckMode   .... Total+1el-Energy
 Convergence forced     ConvForced      .... 0
 Energy Change          TolE            ....  1.000e-08 Eh
 1-El. energy change                    ....  1.000e-05 Eh
 Orbital Gradient       TolG            ....  1.000e-05
 Orbital Rotation angle TolX            ....  1.000e-05
 DIIS Error             TolErr          ....  5.000e-07


Diagonalization of the overlap matrix:
Smallest eigenvalue                        ... 1.081e-02
Time for diagonalization                   ...    0.003 sec
Threshold for overlap eigenvalues          ... 1.000e-08
Number of eigenvalues below threshold      ... 0
Time for construction of square roots      ...    0.001 sec
Total time needed                          ...    0.004 sec

Time for model grid setup =    0.026 sec

------------------------------
INITIAL GUESS: MODEL POTENTIAL
------------------------------
Loading Hartree-Fock densities                     ... done
Calculating cut-offs                               ... done
Initializing the effective Hamiltonian             ... done
Setting up the integral package (SHARK)            ... done
Starting the Coulomb interaction                   ... done (   0.0 sec)
Reading the grid                                   ... done
Mapping shells                                     ... done
Starting the XC term evaluation                    ... done (   0.0 sec)
  promolecular density results
     # of electrons  =     11.999699498
     EX              =    -10.141620124
     EC              =     -0.342583015
     EX+EC           =    -10.484203139
Transforming the Hamiltonian                       ... done (   0.0 sec)
Diagonalizing the Hamiltonian                      ... done (   0.0 sec)
Back transforming the eigenvectors                 ... done (   0.0 sec)
Now organizing SCF variables                       ... done
                      ------------------
                      INITIAL GUESS DONE (   0.1 sec)
                      ------------------
-------------------
DFT GRID GENERATION
-------------------

General Integration Accuracy     IntAcc      ... 4.388
Radial Grid Type                 RadialGrid  ... OptM3 with GC (2021)
Angular Grid (max. ang.)         AngularGrid ... 4 (Lebedev-302)
Angular grid pruning method      GridPruning ... 4 (adaptive)
Weight generation scheme         WeightScheme... Becke
Basis function cutoff            BFCut       ... 1.0000e-11
Integration weight cutoff        WCut        ... 1.0000e-14
Angular grids for H and He will be reduced by one unit
Partially contracted basis set               ... off
Rotationally invariant grid construction     ... off

Total number of grid points                  ...    15531
Total number of batches                      ...      244
Average number of points per batch           ...       63
Average number of grid points per atom       ...     5177
Time for grid setup =    0.131 sec


--------------------
CPCM SOLVATION MODEL
--------------------
CPCM parameters:
  Epsilon                                         ...       7.2500
  Refrac                                          ...       1.4070
  Rsolv                                           ...       1.3000
  Surface type                                    ... GAUSSIAN VDW
  Epsilon function type                           ...         CPCM
Radii:
 Radius for O  used is    3.4469 Bohr (=   1.8240 Ang.)
 Radius for H  used is    2.4944 Bohr (=   1.3200 Ang.)
 Radius for Li used is    4.1272 Bohr (=   2.1840 Ang.)
Calculating surface                               ...        done! (  0.0s)
GEPOL surface points                              ...          241
GEPOL Volume                                      ...     396.9134
GEPOL Surface-area                                ...     273.7884
Calculating surface distance matrix               ...        done! (  0.0s)
Performing Cholesky decomposition & store         ...        done! (  0.0s)
Overall time for CPCM initialization              ...                 0.0s
--------------
SCF ITERATIONS
--------------
ITER       Energy         Delta-E        Max-DP      RMS-DP      [F,P]     Damp
               ***  Starting incremental Fock matrix formation  ***
  0    -83.2287948260   0.000000000000 0.10352408  0.00626069  0.4702147 0.7000
  1    -83.3393115354  -0.110516709468 0.04497346  0.00327051  0.1275733 0.7000
                               ***Turning on DIIS***
  2    -83.3597318521  -0.020420316689 0.03352446  0.00253327  0.0334289 0.0000
  3    -83.4262227101  -0.066490857921 0.02331392  0.00215569  0.0560586 0.0000
  4    -83.4295674248  -0.003344714780 0.01099584  0.00070107  0.0434680 0.0000
  5    -83.4309976348  -0.001430209990 0.00741410  0.00035560  0.0162503 0.0000
  6    -83.4312451792  -0.000247544340 0.00297224  0.00014393  0.0045260 0.0000
                      *** Initiating the SOSCF procedure ***
                           *** Shutting down DIIS ***
                      *** Re-Reading the Fockian *** 
                      *** Removing any level shift *** 
ITER      Energy       Delta-E        Grad      Rot      Max-DP    RMS-DP
  7    -83.43127363  -0.0000284525  0.000473  0.000473  0.001647  0.000103
               *** Restarting incremental Fock matrix formation ***
  8    -83.43127867  -0.0000050407  0.000038  0.000057  0.000109  0.000006
  9    -83.43127866   0.0000000124  0.000061  0.000059  0.000046  0.000003
 10    -83.43127868  -0.0000000242  0.000010  0.000010  0.000010  0.000001
                 **** Energy Check signals convergence ****
              ***Rediagonalizing the Fockian in SOSCF/NRSCF***

               *****************************************************
               *                     SUCCESS                       *
               *           SCF CONVERGED AFTER  11 CYCLES          *
               *****************************************************


----------------
TOTAL SCF ENERGY
----------------

Total Energy       :          -83.43127868 Eh           -2270.28051 eV

Components:
Nuclear Repulsion  :           11.79088239 Eh             320.84622 eV
Electronic Energy  :          -95.22216107 Eh           -2591.12673 eV
One Electron Energy:         -138.97926997 Eh           -3781.81820 eV
Two Electron Energy:           43.75710889 Eh            1190.69147 eV
CPCM Dielectric    :           -0.03338323 Eh              -0.90840 eV

Virial components:
Potential Energy   :         -166.39376680 Eh           -4527.80458 eV
Kinetic Energy     :           82.96248812 Eh            2257.52407 eV
Virial Ratio       :            2.00565063


DFT components:
N(Alpha)           :        5.999988408360 electrons
N(Beta)            :        5.999988408360 electrons
N(Total)           :       11.999976816720 electrons
E(X)               :      -10.527728217834 Eh       
E(C)               :       -0.368366384712 Eh       
E(XC)              :      -10.896094602546 Eh       
DFET-embed. en.    :        0.000000000000 Eh       
CPCM Solvation Model Properties:
Surface-charge          :           -0.01201602
Charge-correction       :           -0.00020328 Eh              -0.00553 eV
Free-energy (cav+disp)  :  This term is not implemented in the current solvation scheme

---------------
SCF CONVERGENCE
---------------

  Last Energy change         ...   -5.5635e-10  Tolerance :   1.0000e-08
  Last MAX-Density change    ...    3.8349e-06  Tolerance :   1.0000e-07
  Last RMS-Density change    ...    2.9420e-07  Tolerance :   5.0000e-09
  Last Orbital Gradient      ...    5.8038e-06  Tolerance :   1.0000e-05
  Last Orbital Rotation      ...    3.8713e-06  Tolerance :   1.0000e-05

             **** THE GBW FILE WAS UPDATED (LiOH_freqot.gbw) ****
             **** DENSITY LiOH_freqot.scfp WAS UPDATED ****
             **** ENERGY FILE WAS UPDATED (LiOH_freqot.en.tmp) ****
             **** THE GBW FILE WAS UPDATED (LiOH_freqot.gbw) ****
             **** DENSITY LiOH_freqot.scfp WAS UPDATED ****
----------------
ORBITAL ENERGIES
----------------

  NO   OCC          E(Eh)            E(eV) 
   0   2.0000     -18.782792      -511.1058 
   1   2.0000      -1.902062       -51.7577 
   2   2.0000      -0.794022       -21.6064 
   3   2.0000      -0.317251        -8.6328 
   4   2.0000      -0.194096        -5.2816 
   5   2.0000      -0.180552        -4.9131 
   6   0.0000      -0.027803        -0.7566 
   7   0.0000       0.044929         1.2226 
   8   0.0000       0.046535         1.2663 
   9   0.0000       0.053824         1.4646 
  10   0.0000       0.116315         3.1651 
  11   0.0000       0.152447         4.1483 
  12   0.0000       0.406954        11.0738 
  13   0.0000       0.469198        12.7675 
  14   0.0000       0.476116        12.9558 
  15   0.0000       0.498873        13.5750 
  16   0.0000       0.499787        13.5999 
  17   0.0000       0.512109        13.9352 
  18   0.0000       0.616143        16.7661 
  19   0.0000       0.750870        20.4322 
  20   0.0000       1.235671        33.6243 
  21   0.0000       1.277829        34.7715 
  22   0.0000       1.351291        36.7705 
  23   0.0000       1.528943        41.6047 
  24   0.0000       1.672433        45.5092 
  25   0.0000       1.816153        49.4200 
  26   0.0000       2.105562        57.2952 
  27   0.0000       2.113280        57.5053 
  28   0.0000       2.282085        62.0987 
  29   0.0000       2.579969        70.2045 
  30   0.0000       2.630477        71.5789 
  31   0.0000       2.657389        72.3112 
  32   0.0000       2.866129        77.9913 
  33   0.0000       3.748308       101.9966 
  34   0.0000       5.207408       141.7008 
  35   0.0000       5.209794       141.7657 
  36   0.0000       5.237377       142.5163 
  37   0.0000       5.245468       142.7364 
  38   0.0000       5.451167       148.3338 
  39   0.0000       5.459046       148.5482 
  40   0.0000       5.727380       155.8499 
  41   0.0000       5.735853       156.0805 
  42   0.0000       5.860796       159.4804 
  43   0.0000       6.134471       166.9274 
  44   0.0000       6.275879       170.7754 
  45   0.0000       6.367795       173.2765 
  46   0.0000       6.381724       173.6555 
  47   0.0000       6.477106       176.2510 
  48   0.0000       7.009671       190.7428 
  49   0.0000      14.253391       387.8545 
  50   0.0000      43.203261      1175.6205 

                    ********************************
                    * MULLIKEN POPULATION ANALYSIS *
                    ********************************

-----------------------
MULLIKEN ATOMIC CHARGES
-----------------------
   0 O :   -1.098133
   1 H :    0.297209
   2 Li:    0.800925
Sum of atomic charges:   -0.0000000

--------------------------------
MULLIKEN REDUCED ORBITAL CHARGES
--------------------------------
  0 O s       :     3.912849  s :     3.912849
      pz      :     1.904285  p :     5.173103
      px      :     1.368596
      py      :     1.900222
      dz2     :     0.002252  d :     0.011368
      dxz     :     0.001171
      dyz     :     0.000723
      dx2y2   :     0.005781
      dxy     :     0.001441
      f0      :     0.000038  f :     0.000813
      f+1     :     0.000245
      f-1     :     0.000012
      f+2     :     0.000048
      f-2     :     0.000009
      f+3     :     0.000379
      f-3     :     0.000082
  1 H s       :     0.659002  s :     0.659002
      pz      :     0.014558  p :     0.043789
      px      :     0.014718
      py      :     0.014513
  2 Lis       :     2.048918  s :     2.048918
      pz      :     0.063211  p :     0.150158
      px      :     0.027653
      py      :     0.059294


                     *******************************
                     * LOEWDIN POPULATION ANALYSIS *
                     *******************************

----------------------
LOEWDIN ATOMIC CHARGES
----------------------
   0 O :   -0.806186
   1 H :    0.125637
   2 Li:    0.680548

-------------------------------
LOEWDIN REDUCED ORBITAL CHARGES
-------------------------------
  0 O s       :     3.642727  s :     3.642727
      pz      :     1.861410  p :     5.145771
      px      :     1.428223
      py      :     1.856138
      dz2     :     0.003625  d :     0.016409
      dxz     :     0.000922
      dyz     :     0.000506
      dx2y2   :     0.010062
      dxy     :     0.001295
      f0      :     0.000027  f :     0.001279
      f+1     :     0.000435
      f-1     :     0.000008
      f+2     :     0.000035
      f-2     :     0.000009
      f+3     :     0.000685
      f-3     :     0.000082
  1 H s       :     0.709962  s :     0.709962
      pz      :     0.042930  p :     0.164400
      px      :     0.078119
      py      :     0.043351
  2 Lis       :     2.076663  s :     2.076663
      pz      :     0.095609  p :     0.242788
      px      :     0.046616
      py      :     0.100563


                      *****************************
                      * MAYER POPULATION ANALYSIS *
                      *****************************

  NA   - Mulliken gross atomic population
  ZA   - Total nuclear charge
  QA   - Mulliken gross atomic charge
  VA   - Mayer's total valence
  BVA  - Mayer's bonded valence
  FA   - Mayer's free valence

  ATOM       NA         ZA         QA         VA         BVA        FA
  0 O      9.0981     8.0000    -1.0981     1.2891     1.2891    -0.0000
  1 H      0.7028     1.0000     0.2972     0.9161     0.9161    -0.0000
  2 Li     2.1991     3.0000     0.8009     0.3845     0.3845    -0.0000

  Mayer bond orders larger than 0.100000
B(  0-O ,  1-H ) :   0.9103 B(  0-O ,  2-Li) :   0.3788 

-------
TIMINGS
-------

Total SCF time: 0 days 0 hours 0 min 3 sec 

Total time                  ....       3.808 sec
Sum of individual times     ....       3.639 sec  ( 95.6%)

Fock matrix formation       ....       3.413 sec  ( 89.6%)
  Split-RI-J                ....       0.172 sec  (  5.0% of F)
  XC integration            ....       1.442 sec  ( 42.2% of F)
    Basis function eval.    ....       0.260 sec  ( 18.1% of XC)
    Density eval.           ....       0.345 sec  ( 23.9% of XC)
    XC-Functional eval.     ....       0.421 sec  ( 29.2% of XC)
    XC-Potential eval.      ....       0.330 sec  ( 22.9% of XC)
Diagonalization             ....       0.015 sec  (  0.4%)
Density matrix formation    ....       0.001 sec  (  0.0%)
Population analysis         ....       0.003 sec  (  0.1%)
Initial guess               ....       0.029 sec  (  0.8%)
Orbital Transformation      ....       0.000 sec  (  0.0%)
Orbital Orthonormalization  ....       0.000 sec  (  0.0%)
DIIS solution               ....       0.014 sec  (  0.4%)
SOSCF solution              ....       0.006 sec  (  0.2%)
Grid generation             ....       0.157 sec  (  4.1%)

Maximum memory used throughout the entire SCF-calculation: 7.3 MB


-------------------------------------------------------------------------------
                          DFT DISPERSION CORRECTION                            
                                                                               
                              DFTD3 V3.1  Rev 1                                
                          USING Becke-Johnson damping                          
-------------------------------------------------------------------------------
The TPSS functional is recognized
Active option DFTDOPT                   ...         4   

molecular C6(AA) [au] = 188.202822 


            DFT-D V3
 parameters
 s6 scaling factor         :     1.0000 
 a1 scaling factor         :     0.4535 
 s8 scaling factor         :     1.9435 
 a2 scaling factor         :     4.4752 
 ad hoc parameters k1-k3   :    16.0000     1.3333    -4.0000 

 Edisp/kcal,au: -0.498715726222  -0.000794754014 
 E6   /kcal   :  -0.225652938 
 E8   /kcal   :  -0.273062788 
 % E8         :  54.753193858 

-------------------------   ----------------
Dispersion correction           -0.000794754
-------------------------   ----------------


-------------------------   --------------------
FINAL SINGLE POINT ENERGY       -83.432073438764
-------------------------   --------------------



           ************************************************************
           *        Program running with 2 parallel MPI-processes     *
           *              working on a common directory               *
           ************************************************************
------------------------------------------------------------------------------
                         ORCA SCF GRADIENT CALCULATION
------------------------------------------------------------------------------

Gradient of the Kohn-Sham DFT energy:
Kohn-Sham wavefunction type      ... RKS
Hartree-Fock exchange scaling    ...    0.000
Number of operators              ...    1
Number of atoms                  ...    3
Basis set dimensions             ...   51
Integral neglect threshold       ... 2.5e-11
Integral primitive cutoff        ... 2.5e-12
SHARK Integral package           ... ON

Nuc. rep. gradient       (SHARK) ... done (  0.0 sec)
HCore & Overlap gradient (SHARK) ... done (  0.0 sec)
RI-J gradient            (SHARK) ... done (  0.2 sec)
Exchange-correlation gradient    ... done
Dispersion correction            ... done

------------------
CARTESIAN GRADIENT
------------------

   1   O   :   -0.010009452   -0.019061034   -0.015628882
   2   H   :    0.016000295    0.004499957    0.003685906
   3   Li  :   -0.005990843    0.014561077    0.011942976

Difference to translation invariance:
           :   -0.0000000000    0.0000000000    0.0000000000

Difference to rotation invariance:
           :   -0.0001426206    0.0002165447   -0.0003059453

Norm of the cartesian gradient     ...    0.0372581390
RMS gradient                       ...    0.0124193797
MAX gradient                       ...    0.0190610341

-------
TIMINGS
-------

Total SCF gradient time            ...        0.835 sec

One electron gradient       ....       0.010 sec  (  1.2%)
RI-J Coulomb gradient       ....       0.154 sec  ( 18.4%)
XC gradient                 ....       0.247 sec  ( 29.5%)
CPCM gradient               ....       0.106 sec  ( 12.7%)
   A-Matrix (El+Nuc)        ....       0.006 sec  (  0.7%)
   Potential                ....       0.100 sec  ( 12.0%)

Maximum memory used throughout the entire SCFGRAD-calculation: 25.6 MB
------------------------------------------------------------------------------
                         ORCA GEOMETRY RELAXATION STEP
------------------------------------------------------------------------------

Reading the OPT-File                    .... done
Getting information on internals        .... done
Copying old internal coords+grads       .... done
Making the new internal coordinates     .... (new redundants).... done
Validating the new internal coordinates .... (new redundants).... done
Calculating the B-matrix                .... done
Calculating the G,G- and P matrices     .... done
Transforming gradient to internals      .... done
Projecting the internal gradient        .... done
Number of atoms                         ....   3
Number of internal coordinates          ....   3
Current Energy                          ....   -83.432073439 Eh
Current gradient norm                   ....     0.037258139 Eh/bohr
Maximum allowed component of the step   ....  0.300
Current trust radius                    ....  0.300
Evaluating the initial hessian          ....  (Almloef) done
Projecting the Hessian                  .... done
Forming the augmented Hessian           .... done
Diagonalizing the augmented Hessian     .... done
Last element of RFO vector              ....  0.998401462
Lowest eigenvalues of augmented Hessian:
 -0.001501787  0.377076486  0.465837729
Length of the computed step             ....  0.056610584
The final length of the internal step   ....  0.056610584
Converting the step to cartesian space:
 Initial RMS(Int)=    0.0326841359
Transforming coordinates:
 Iter   0:  RMS(Cart)=    0.0136210492 RMS(Int)=    0.0326665179
 Iter   1:  RMS(Cart)=    0.0001399052 RMS(Int)=    0.0001844195
 Iter   2:  RMS(Cart)=    0.0000025683 RMS(Int)=    0.0000037696
 Iter   3:  RMS(Cart)=    0.0000000322 RMS(Int)=    0.0000000517
done
Storing new coordinates                 .... done

                                .--------------------.
          ----------------------|Geometry convergence|-------------------------
          Item                value                   Tolerance       Converged
          ---------------------------------------------------------------------
          RMS gradient        0.0153463254            0.0001000000      NO
          MAX gradient        0.0196522640            0.0003000000      NO
          RMS step            0.0326841359            0.0020000000      NO
          MAX step            0.0404686512            0.0040000000      NO
          ........................................................
          Max(Bonds)      0.0214      Max(Angles)    0.96
          Max(Dihed)        0.00      Max(Improp)    0.00
          ---------------------------------------------------------------------

The optimization has not yet converged - more geometry cycles are needed


    ---------------------------------------------------------------------------
                         Redundant Internal Coordinates
                            (Angstroem and degrees)

        Definition                    Value    dE/dq     Step     New-Value
    ----------------------------------------------------------------------------
     1. B(H   1,O   0)                0.9903  0.016728 -0.0190    0.9713   
     2. B(Li  2,O   0)                1.8594  0.019652 -0.0214    1.8380   
     3. A(H   1,O   0,Li  2)          104.51 -0.006363    0.96    105.47   
    ----------------------------------------------------------------------------

         *************************************************************
         *                GEOMETRY OPTIMIZATION CYCLE   2            *
         *************************************************************
---------------------------------
CARTESIAN COORDINATES (ANGSTROEM)
---------------------------------
  O     -0.358376    1.240548   -0.192155
  H      0.603504    1.344637   -0.106386
  Li    -1.089967    2.541845    0.880107

----------------------------
CARTESIAN COORDINATES (A.U.)
----------------------------
  NO LB      ZA    FRAG     MASS         X           Y           Z
   0 O     8.0000    0    15.999   -0.677232    2.344297   -0.363119
   1 H     1.0000    0     1.008    1.140457    2.540996   -0.201040
   2 Li    3.0000    0     6.941   -2.059738    4.803390    1.663161

--------------------------------
INTERNAL COORDINATES (ANGSTROEM)
--------------------------------
 O      0   0   0     0.000000000000     0.00000000     0.00000000
 H      1   0   0     0.971289265857     0.00000000     0.00000000
 Li     1   2   0     1.838026637948   105.47324841     0.00000000

---------------------------
INTERNAL COORDINATES (A.U.)
---------------------------
 O      0   0   0     0.000000000000     0.00000000     0.00000000
 H      1   0   0     1.835470709287     0.00000000     0.00000000
 Li     1   2   0     3.473366972575   105.47324841     0.00000000



           ************************************************************
           *        Program running with 2 parallel MPI-processes     *
           *              working on a common directory               *
           ************************************************************
------------------------------------------------------------------------------
                   ___                                                        
                  /   \      - P O W E R E D   B Y -                         
                 /     \                                                     
                 |  |  |   _    _      __       _____    __    __             
                 |  |  |  | |  | |    /  \     |  _  \  |  |  /  |          
                  \  \/   | |  | |   /    \    | | | |  |  | /  /          
                 / \  \   | |__| |  /  /\  \   | |_| |  |  |/  /          
                |  |  |   |  __  | /  /__\  \  |    /   |      \           
                |  |  |   | |  | | |   __   |  |    \   |  |\   \          
                \     /   | |  | | |  |  |  |  | |\  \  |  | \   \       
                 \___/    |_|  |_| |__|  |__|  |_| \__\ |__|  \__/        
                                                                              
                      - O R C A' S   B I G   F R I E N D -                    
                                      &                                       
                       - I N T E G R A L  F E E D E R -                       
                                                                              
 v1 FN, 2020, v2 2021                                                         
------------------------------------------------------------------------------


Reading SHARK input file LiOH_freqot.SHARKINP.tmp ... ok
----------------------
SHARK INTEGRAL PACKAGE
----------------------

Number of atoms                             ...      3
Number of basis functions                   ...     51
Number of shells                            ...     23
Maximum angular momentum                    ...      3
Integral batch strategy                     ... SHARK/LIBINT Hybrid
RI-J (if used) integral strategy            ... SPLIT-RIJ (Revised 2003 algorithm where possible)
Printlevel                                  ...      1
Contraction scheme used                     ... SEGMENTED contraction
Coulomb Range Separation                    ... NOT USED
Exchange Range Separation                   ... NOT USED
Finite Nucleus Model                        ... NOT USED
Auxiliary Coulomb fitting basis             ... AVAILABLE
   # of basis functions in Aux-J            ...    109
   # of shells in Aux-J                     ...     35
   Maximum angular momentum in Aux-J        ...      4
Auxiliary J/K fitting basis                 ... NOT available
Auxiliary Correlation fitting basis         ... NOT available
Auxiliary 'external' fitting basis          ... NOT available
Integral threshold                          ...     2.500000e-11
Primitive cut-off                           ...     2.500000e-12
Primitive pair pre-selection threshold      ...     2.500000e-12

Calculating pre-screening integrals         ... done (  0.1 sec) Dimension = 23
Organizing shell pair data                  ... done (  0.0 sec)
Shell pair information
Total number of shell pairs                 ...       276
Shell pairs after pre-screening             ...       273
Total number of primitive shell pairs       ...       861
Primitive shell pairs kept                  ...       755
          la=0 lb=0:     89 shell pairs
          la=1 lb=0:     90 shell pairs
          la=1 lb=1:     28 shell pairs
          la=2 lb=0:     26 shell pairs
          la=2 lb=1:     14 shell pairs
          la=2 lb=2:      3 shell pairs
          la=3 lb=0:     13 shell pairs
          la=3 lb=1:      7 shell pairs
          la=3 lb=2:      2 shell pairs
          la=3 lb=3:      1 shell pairs

Calculating one electron integrals          ... done (  0.0 sec)
Calculating RI/J V-Matrix + Cholesky decomp.... done (  0.0 sec)
Calculating Nuclear repulsion               ... done (  0.0 sec) ENN=     11.959533574775 Eh

SHARK setup successfully completed in   0.3 seconds

Maximum memory used throughout the entire GTOINT-calculation: 13.9 MB


           ************************************************************
           *        Program running with 2 parallel MPI-processes     *
           *              working on a common directory               *
           ************************************************************

Diagonalization of the overlap matrix:
Smallest eigenvalue                        ... 1.004e-02
Time for diagonalization                   ...    0.002 sec
Threshold for overlap eigenvalues          ... 1.000e-08
Number of eigenvalues below threshold      ... 0
Time for construction of square roots      ...    0.001 sec
Total time needed                          ...    0.004 sec

-------------------
DFT GRID GENERATION
-------------------

General Integration Accuracy     IntAcc      ... 4.388
Radial Grid Type                 RadialGrid  ... OptM3 with GC (2021)
Angular Grid (max. ang.)         AngularGrid ... 4 (Lebedev-302)
Angular grid pruning method      GridPruning ... 4 (adaptive)
Weight generation scheme         WeightScheme... Becke
Basis function cutoff            BFCut       ... 1.0000e-11
Integration weight cutoff        WCut        ... 1.0000e-14
Angular grids for H and He will be reduced by one unit
Partially contracted basis set               ... off
Rotationally invariant grid construction     ... off

Total number of grid points                  ...    15529
Total number of batches                      ...      243
Average number of points per batch           ...       63
Average number of grid points per atom       ...     5176
Time for grid setup =    0.126 sec


--------------------
CPCM SOLVATION MODEL
--------------------
CPCM parameters:
  Epsilon                                         ...       7.2500
  Refrac                                          ...       1.4070
  Rsolv                                           ...       1.3000
  Surface type                                    ... GAUSSIAN VDW
  Epsilon function type                           ...         CPCM
Radii:
 Radius for O  used is    3.4469 Bohr (=   1.8240 Ang.)
 Radius for H  used is    2.4944 Bohr (=   1.3200 Ang.)
 Radius for Li used is    4.1272 Bohr (=   2.1840 Ang.)
Calculating surface                               ...        done! (  0.0s)
GEPOL surface points                              ...          239
GEPOL Volume                                      ...     394.9741
GEPOL Surface-area                                ...     272.5433
Calculating surface distance matrix               ...        done! (  0.0s)
Performing Cholesky decomposition & store         ...        done! (  0.0s)
Overall time for CPCM initialization              ...                 0.0s
--------------
SCF ITERATIONS
--------------
ITER       Energy         Delta-E        Max-DP      RMS-DP      [F,P]     Damp
               ***  Starting incremental Fock matrix formation  ***
  0    -83.4323233152   0.000000000000 0.00133930  0.00008296  0.0090751 0.7000
                      *** Initiating the SOSCF procedure ***
                      *** Re-Reading the Fockian *** 
                      *** Removing any level shift *** 
ITER      Energy       Delta-E        Grad      Rot      Max-DP    RMS-DP
  1    -83.43236918  -0.0000458614  0.000714  0.000714  0.002977  0.000228
               *** Restarting incremental Fock matrix formation ***
  2    -83.43244658  -0.0000774049  0.001638  0.004065  0.004070  0.000245
  3    -83.43238623   0.0000603490  0.003523  0.002628  0.002454  0.000170
  4    -83.43246372  -0.0000774885  0.000139  0.000121  0.000135  0.000008
  5    -83.43246378  -0.0000000621  0.000069  0.000044  0.000055  0.000003
                  ***Gradient check signals convergence***
              ***Rediagonalizing the Fockian in SOSCF/NRSCF***

               *****************************************************
               *                     SUCCESS                       *
               *           SCF CONVERGED AFTER   6 CYCLES          *
               *****************************************************

Total Energy       :          -83.43246381 Eh           -2270.31276 eV
  Last Energy change         ...   -2.6608e-08  Tolerance :   1.0000e-08
  Last MAX-Density change    ...    1.2810e-06  Tolerance :   1.0000e-07
             **** THE GBW FILE WAS UPDATED (LiOH_freqot.gbw) ****
             **** DENSITY LiOH_freqot.scfp WAS UPDATED ****
             **** ENERGY FILE WAS UPDATED (LiOH_freqot.en.tmp) ****
             **** THE GBW FILE WAS UPDATED (LiOH_freqot.gbw) ****
             **** DENSITY LiOH_freqot.scfp WAS UPDATED ****
Total SCF time: 0 days 0 hours 0 min 2 sec 

Maximum memory used throughout the entire SCF-calculation: 7.3 MB


-------------------------------------------------------------------------------
                          DFT DISPERSION CORRECTION                            
                                                                               
                              DFTD3 V3.1  Rev 1                                
                          USING Becke-Johnson damping                          
-------------------------------------------------------------------------------
-------------------------   ----------------
Dispersion correction           -0.000794390
-------------------------   ----------------


-------------------------   --------------------
FINAL SINGLE POINT ENERGY       -83.433258199765
-------------------------   --------------------



           ************************************************************
           *        Program running with 2 parallel MPI-processes     *
           *              working on a common directory               *
           ************************************************************
------------------------------------------------------------------------------
                         ORCA SCF GRADIENT CALCULATION
------------------------------------------------------------------------------

Gradient of the Kohn-Sham DFT energy:
Kohn-Sham wavefunction type      ... RKS
Hartree-Fock exchange scaling    ...    0.000
Number of operators              ...    1
Number of atoms                  ...    3
Basis set dimensions             ...   51
Integral neglect threshold       ... 2.5e-11
Integral primitive cutoff        ... 2.5e-12
SHARK Integral package           ... ON

Nuc. rep. gradient       (SHARK) ... done (  0.0 sec)
HCore & Overlap gradient (SHARK) ... done (  0.0 sec)
RI-J gradient            (SHARK) ... done (  0.2 sec)
Exchange-correlation gradient    ... done
Dispersion correction            ... done

------------------
CARTESIAN GRADIENT
------------------

   1   O   :    0.005293125   -0.016151921   -0.013253915
   2   H   :   -0.000079687    0.002865967    0.002345674
   3   Li  :   -0.005213438    0.013285955    0.010908241

Difference to translation invariance:
           :   -0.0000000000    0.0000000000    0.0000000000

Difference to rotation invariance:
           :   -0.0000998103    0.0002402004   -0.0003224720

Norm of the cartesian gradient     ...    0.0283015292
RMS gradient                       ...    0.0094338431
MAX gradient                       ...    0.0161519213

-------
TIMINGS
-------

Total SCF gradient time            ...        0.837 sec

One electron gradient       ....       0.010 sec  (  1.2%)
RI-J Coulomb gradient       ....       0.154 sec  ( 18.4%)
XC gradient                 ....       0.254 sec  ( 30.4%)
CPCM gradient               ....       0.105 sec  ( 12.5%)
   A-Matrix (El+Nuc)        ....       0.006 sec  (  0.7%)
   Potential                ....       0.099 sec  ( 11.9%)

Maximum memory used throughout the entire SCFGRAD-calculation: 25.6 MB
------------------------------------------------------------------------------
                         ORCA GEOMETRY RELAXATION STEP
------------------------------------------------------------------------------

Reading the OPT-File                    .... done
Getting information on internals        .... done
Copying old internal coords+grads       .... done
Making the new internal coordinates     .... (new redundants).... done
Validating the new internal coordinates .... (new redundants).... done
Calculating the B-matrix                .... done
Calculating the G,G- and P matrices     .... done
Transforming gradient to internals      .... done
Projecting the internal gradient        .... done
Number of atoms                         ....   3
Number of internal coordinates          ....   3
Current Energy                          ....   -83.433258200 Eh
Current gradient norm                   ....     0.028301529 Eh/bohr
Maximum allowed component of the step   ....  0.300
Current trust radius                    ....  0.300
Updating the Hessian (BFGS)             .... done
Forming the augmented Hessian           .... done
Diagonalizing the augmented Hessian     .... done
Last element of RFO vector              ....  0.989861672
Lowest eigenvalues of augmented Hessian:
 -0.002649040  0.126564942  0.394421188
Length of the computed step             ....  0.143489492
The final length of the internal step   ....  0.143489492
Converting the step to cartesian space:
 Initial RMS(Int)=    0.0828436969
Transforming coordinates:
 Iter   0:  RMS(Cart)=    0.0329816119 RMS(Int)=    0.0827435068
 Iter   1:  RMS(Cart)=    0.0009142283 RMS(Int)=    0.0014850424
 Iter   2:  RMS(Cart)=    0.0000254748 RMS(Int)=    0.0000627404
 Iter   3:  RMS(Cart)=    0.0000016080 RMS(Int)=    0.0000021719
 Iter   4:  RMS(Cart)=    0.0000000732 RMS(Int)=    0.0000001402
done
Storing new coordinates                 .... done

                                .--------------------.
          ----------------------|Geometry convergence|-------------------------
          Item                value                   Tolerance       Converged
          ---------------------------------------------------------------------
          Energy change      -0.0011847610            0.0000050000      NO
          RMS gradient        0.0110282257            0.0001000000      NO
          MAX gradient        0.0178242516            0.0003000000      NO
          RMS step            0.0828436969            0.0020000000      NO
          MAX step            0.1251284601            0.0040000000      NO
          ........................................................
          Max(Bonds)      0.0662      Max(Angles)    3.35
          Max(Dihed)        0.00      Max(Improp)    0.00
          ---------------------------------------------------------------------

The optimization has not yet converged - more geometry cycles are needed


    ---------------------------------------------------------------------------
                         Redundant Internal Coordinates
                            (Angstroem and degrees)

        Definition                    Value    dE/dq     Step     New-Value
    ----------------------------------------------------------------------------
     1. B(H   1,O   0)                0.9713  0.000475 -0.0206    0.9507   
     2. B(Li  2,O   0)                1.8380  0.017824 -0.0662    1.7718   
     3. A(H   1,O   0,Li  2)          105.47 -0.006851    3.35    108.82   
    ----------------------------------------------------------------------------

         *************************************************************
         *                GEOMETRY OPTIMIZATION CYCLE   3            *
         *************************************************************
---------------------------------
CARTESIAN COORDINATES (ANGSTROEM)
---------------------------------
  O     -0.355577    1.270394   -0.167562
  H      0.590987    1.338441   -0.111491
  Li    -1.080249    2.518195    0.860620

----------------------------
CARTESIAN COORDINATES (A.U.)
----------------------------
  NO LB      ZA    FRAG     MASS         X           Y           Z
   0 O     8.0000    0    15.999   -0.671943    2.400696   -0.316646
   1 H     1.0000    0     1.008    1.116804    2.529288   -0.210688
   2 Li    3.0000    0     6.941   -2.041375    4.758699    1.626336

--------------------------------
INTERNAL COORDINATES (ANGSTROEM)
--------------------------------
 O      0   0   0     0.000000000000     0.00000000     0.00000000
 H      1   0   0     0.950661722218     0.00000000     0.00000000
 Li     1   2   0     1.771811508868   108.82033799     0.00000000

---------------------------
INTERNAL COORDINATES (A.U.)
---------------------------
 O      0   0   0     0.000000000000     0.00000000     0.00000000
 H      1   0   0     1.796490300995     0.00000000     0.00000000
 Li     1   2   0     3.348238512691   108.82033799     0.00000000



           ************************************************************
           *        Program running with 2 parallel MPI-processes     *
           *              working on a common directory               *
           ************************************************************
------------------------------------------------------------------------------
                   ___                                                        
                  /   \      - P O W E R E D   B Y -                         
                 /     \                                                     
                 |  |  |   _    _      __       _____    __    __             
                 |  |  |  | |  | |    /  \     |  _  \  |  |  /  |          
                  \  \/   | |  | |   /    \    | | | |  |  | /  /          
                 / \  \   | |__| |  /  /\  \   | |_| |  |  |/  /          
                |  |  |   |  __  | /  /__\  \  |    /   |      \           
                |  |  |   | |  | | |   __   |  |    \   |  |\   \          
                \     /   | |  | | |  |  |  |  | |\  \  |  | \   \       
                 \___/    |_|  |_| |__|  |__|  |_| \__\ |__|  \__/        
                                                                              
                      - O R C A' S   B I G   F R I E N D -                    
                                      &                                       
                       - I N T E G R A L  F E E D E R -                       
                                                                              
 v1 FN, 2020, v2 2021                                                         
------------------------------------------------------------------------------


Reading SHARK input file LiOH_freqot.SHARKINP.tmp ... ok
----------------------
SHARK INTEGRAL PACKAGE
----------------------

Number of atoms                             ...      3
Number of basis functions                   ...     51
Number of shells                            ...     23
Maximum angular momentum                    ...      3
Integral batch strategy                     ... SHARK/LIBINT Hybrid
RI-J (if used) integral strategy            ... SPLIT-RIJ (Revised 2003 algorithm where possible)
Printlevel                                  ...      1
Contraction scheme used                     ... SEGMENTED contraction
Coulomb Range Separation                    ... NOT USED
Exchange Range Separation                   ... NOT USED
Finite Nucleus Model                        ... NOT USED
Auxiliary Coulomb fitting basis             ... AVAILABLE
   # of basis functions in Aux-J            ...    109
   # of shells in Aux-J                     ...     35
   Maximum angular momentum in Aux-J        ...      4
Auxiliary J/K fitting basis                 ... NOT available
Auxiliary Correlation fitting basis         ... NOT available
Auxiliary 'external' fitting basis          ... NOT available
Integral threshold                          ...     2.500000e-11
Primitive cut-off                           ...     2.500000e-12
Primitive pair pre-selection threshold      ...     2.500000e-12

Calculating pre-screening integrals         ... done (  0.1 sec) Dimension = 23
Organizing shell pair data                  ... done (  0.0 sec)
Shell pair information
Total number of shell pairs                 ...       276
Shell pairs after pre-screening             ...       273
Total number of primitive shell pairs       ...       861
Primitive shell pairs kept                  ...       758
          la=0 lb=0:     89 shell pairs
          la=1 lb=0:     90 shell pairs
          la=1 lb=1:     28 shell pairs
          la=2 lb=0:     26 shell pairs
          la=2 lb=1:     14 shell pairs
          la=2 lb=2:      3 shell pairs
          la=3 lb=0:     13 shell pairs
          la=3 lb=1:      7 shell pairs
          la=3 lb=2:      2 shell pairs
          la=3 lb=3:      1 shell pairs

Calculating one electron integrals          ... done (  0.0 sec)
Calculating RI/J V-Matrix + Cholesky decomp.... done (  0.0 sec)
Calculating Nuclear repulsion               ... done (  0.0 sec) ENN=     12.321998009542 Eh

SHARK setup successfully completed in   0.3 seconds

Maximum memory used throughout the entire GTOINT-calculation: 13.9 MB


           ************************************************************
           *        Program running with 2 parallel MPI-processes     *
           *              working on a common directory               *
           ************************************************************

Diagonalization of the overlap matrix:
Smallest eigenvalue                        ... 9.238e-03
Time for diagonalization                   ...    0.002 sec
Threshold for overlap eigenvalues          ... 1.000e-08
Number of eigenvalues below threshold      ... 0
Time for construction of square roots      ...    0.001 sec
Total time needed                          ...    0.004 sec

-------------------
DFT GRID GENERATION
-------------------

General Integration Accuracy     IntAcc      ... 4.388
Radial Grid Type                 RadialGrid  ... OptM3 with GC (2021)
Angular Grid (max. ang.)         AngularGrid ... 4 (Lebedev-302)
Angular grid pruning method      GridPruning ... 4 (adaptive)
Weight generation scheme         WeightScheme... Becke
Basis function cutoff            BFCut       ... 1.0000e-11
Integration weight cutoff        WCut        ... 1.0000e-14
Angular grids for H and He will be reduced by one unit
Partially contracted basis set               ... off
Rotationally invariant grid construction     ... off

Total number of grid points                  ...    15520
Total number of batches                      ...      244
Average number of points per batch           ...       63
Average number of grid points per atom       ...     5173
Time for grid setup =    0.127 sec


--------------------
CPCM SOLVATION MODEL
--------------------
CPCM parameters:
  Epsilon                                         ...       7.2500
  Refrac                                          ...       1.4070
  Rsolv                                           ...       1.3000
  Surface type                                    ... GAUSSIAN VDW
  Epsilon function type                           ...         CPCM
Radii:
 Radius for O  used is    3.4469 Bohr (=   1.8240 Ang.)
 Radius for H  used is    2.4944 Bohr (=   1.3200 Ang.)
 Radius for Li used is    4.1272 Bohr (=   2.1840 Ang.)
Calculating surface                               ...        done! (  0.0s)
GEPOL surface points                              ...          240
GEPOL Volume                                      ...     390.4235
GEPOL Surface-area                                ...     269.7855
Calculating surface distance matrix               ...        done! (  0.0s)
Performing Cholesky decomposition & store         ...        done! (  0.0s)
Overall time for CPCM initialization              ...                 0.0s
--------------
SCF ITERATIONS
--------------
ITER       Energy         Delta-E        Max-DP      RMS-DP      [F,P]     Damp
               ***  Starting incremental Fock matrix formation  ***
  0    -83.4337249192   0.000000000000 0.00217651  0.00018870  0.0133263 0.7000
                      *** Initiating the SOSCF procedure ***
                      *** Re-Reading the Fockian *** 
                      *** Removing any level shift *** 
ITER      Energy       Delta-E        Grad      Rot      Max-DP    RMS-DP
  1    -83.43391424  -0.0001893257  0.001287  0.001287  0.005588  0.000567
               *** Restarting incremental Fock matrix formation ***
  2    -83.43427927  -0.0003650234  0.002855  0.007108  0.007220  0.000439
  3    -83.43410153   0.0001777404  0.006150  0.004614  0.004323  0.000295
  4    -83.43433702  -0.0002354908  0.000188  0.000119  0.000114  0.000010
  5    -83.43433714  -0.0000001258  0.000090  0.000038  0.000042  0.000003
                  ***Gradient check signals convergence***
              ***Rediagonalizing the Fockian in SOSCF/NRSCF***

               *****************************************************
               *                     SUCCESS                       *
               *           SCF CONVERGED AFTER   6 CYCLES          *
               *****************************************************

Total Energy       :          -83.43433719 Eh           -2270.36374 eV
  Last Energy change         ...   -4.0914e-08  Tolerance :   1.0000e-08
  Last MAX-Density change    ...    1.0792e-06  Tolerance :   1.0000e-07
             **** THE GBW FILE WAS UPDATED (LiOH_freqot.gbw) ****
             **** DENSITY LiOH_freqot.scfp WAS UPDATED ****
             **** ENERGY FILE WAS UPDATED (LiOH_freqot.en.tmp) ****
             **** THE GBW FILE WAS UPDATED (LiOH_freqot.gbw) ****
             **** DENSITY LiOH_freqot.scfp WAS UPDATED ****
Total SCF time: 0 days 0 hours 0 min 2 sec 

Maximum memory used throughout the entire SCF-calculation: 7.3 MB


-------------------------------------------------------------------------------
                          DFT DISPERSION CORRECTION                            
                                                                               
                              DFTD3 V3.1  Rev 1                                
                          USING Becke-Johnson damping                          
-------------------------------------------------------------------------------
-------------------------   ----------------
Dispersion correction           -0.000794024
-------------------------   ----------------


-------------------------   --------------------
FINAL SINGLE POINT ENERGY       -83.435131209534
-------------------------   --------------------



           ************************************************************
           *        Program running with 2 parallel MPI-processes     *
           *              working on a common directory               *
           ************************************************************
------------------------------------------------------------------------------
                         ORCA SCF GRADIENT CALCULATION
------------------------------------------------------------------------------

Gradient of the Kohn-Sham DFT energy:
Kohn-Sham wavefunction type      ... RKS
Hartree-Fock exchange scaling    ...    0.000
Number of operators              ...    1
Number of atoms                  ...    3
Basis set dimensions             ...   51
Integral neglect threshold       ... 2.5e-11
Integral primitive cutoff        ... 2.5e-12
SHARK Integral package           ... ON

Nuc. rep. gradient       (SHARK) ... done (  0.0 sec)
HCore & Overlap gradient (SHARK) ... done (  0.0 sec)
RI-J gradient            (SHARK) ... done (  0.2 sec)
Exchange-correlation gradient    ... done
Dispersion correction            ... done

------------------
CARTESIAN GRADIENT
------------------

   1   O   :    0.021962981   -0.010064769   -0.008269292
   2   H   :   -0.019662230    0.001757540    0.001447531
   3   Li  :   -0.002300751    0.008307230    0.006821761

Difference to translation invariance:
           :   -0.0000000000    0.0000000000    0.0000000000

Difference to rotation invariance:
           :   -0.0000551567    0.0001989786   -0.0002788329

Norm of the cartesian gradient     ...    0.0341274199
RMS gradient                       ...    0.0113758066
MAX gradient                       ...    0.0219629807

-------
TIMINGS
-------

Total SCF gradient time            ...        0.851 sec

One electron gradient       ....       0.010 sec  (  1.1%)
RI-J Coulomb gradient       ....       0.153 sec  ( 18.0%)
XC gradient                 ....       0.245 sec  ( 28.8%)
CPCM gradient               ....       0.105 sec  ( 12.3%)
   A-Matrix (El+Nuc)        ....       0.006 sec  (  0.7%)
   Potential                ....       0.099 sec  ( 11.7%)

Maximum memory used throughout the entire SCFGRAD-calculation: 25.6 MB
------------------------------------------------------------------------------
                         ORCA GEOMETRY RELAXATION STEP
------------------------------------------------------------------------------

Reading the OPT-File                    .... done
Getting information on internals        .... done
Copying old internal coords+grads       .... done
Making the new internal coordinates     .... (new redundants).... done
Validating the new internal coordinates .... (new redundants).... done
Calculating the B-matrix                .... done
Calculating the G,G- and P matrices     .... done
Transforming gradient to internals      .... done
Projecting the internal gradient        .... done
Number of atoms                         ....   3
Number of internal coordinates          ....   3
Current Energy                          ....   -83.435131210 Eh
Current gradient norm                   ....     0.034127420 Eh/bohr
Maximum allowed component of the step   ....  0.300
Current trust radius                    ....  0.300
Updating the Hessian (BFGS)             .... done
Forming the augmented Hessian           .... done
Diagonalizing the augmented Hessian     .... done
Last element of RFO vector              ....  0.986977677
Lowest eigenvalues of augmented Hessian:
 -0.002107504  0.062575295  0.398781690
Length of the computed step             ....  0.162979658
The final length of the internal step   ....  0.162979658
Converting the step to cartesian space:
 Initial RMS(Int)=    0.0940963491
Transforming coordinates:
 Iter   0:  RMS(Cart)=    0.0370997589 RMS(Int)=    0.0941095486
 Iter   1:  RMS(Cart)=    0.0010746687 RMS(Int)=    0.0022975955
 Iter   2:  RMS(Cart)=    0.0000600136 RMS(Int)=    0.0000994502
 Iter   3:  RMS(Cart)=    0.0000043948 RMS(Int)=    0.0000080749
 Iter   4:  RMS(Cart)=    0.0000001926 RMS(Int)=    0.0000003953
 Iter   5:  RMS(Cart)=    0.0000000165 RMS(Int)=    0.0000000267
done
Storing new coordinates                 .... done

                                .--------------------.
          ----------------------|Geometry convergence|-------------------------
          Item                value                   Tolerance       Converged
          ---------------------------------------------------------------------
          Energy change      -0.0018730098            0.0000050000      NO
          RMS gradient        0.0134692092            0.0001000000      NO
          MAX gradient        0.0193332355            0.0003000000      NO
          RMS step            0.0940963491            0.0020000000      NO
          MAX step            0.1428336983            0.0040000000      NO
          ........................................................
          Max(Bonds)      0.0756      Max(Angles)    4.50
          Max(Dihed)        0.00      Max(Improp)    0.00
          ---------------------------------------------------------------------

The optimization has not yet converged - more geometry cycles are needed


    ---------------------------------------------------------------------------
                         Redundant Internal Coordinates
                            (Angstroem and degrees)

        Definition                    Value    dE/dq     Step     New-Value
    ----------------------------------------------------------------------------
     1. B(H   1,O   0)                0.9507 -0.019333 -0.0002    0.9504   
     2. B(Li  2,O   0)                1.7718  0.010732 -0.0756    1.6962   
     3. A(H   1,O   0,Li  2)          108.82 -0.007437    4.50    113.32   
    ----------------------------------------------------------------------------

         *************************************************************
         *                GEOMETRY OPTIMIZATION CYCLE   4            *
         *************************************************************
---------------------------------
CARTESIAN COORDINATES (ANGSTROEM)
---------------------------------
  O     -0.360091    1.306446   -0.137855
  H      0.589951    1.326910   -0.120993
  Li    -1.074699    2.493674    0.840415

----------------------------
CARTESIAN COORDINATES (A.U.)
----------------------------
  NO LB      ZA    FRAG     MASS         X           Y           Z
[...]
  27   0.0000       2.125929        57.8495 
  28   0.0000       2.494802        67.8870 
  29   0.0000       2.635520        71.7161 
  30   0.0000       2.635590        71.7181 
  31   0.0000       2.666867        72.5691 
  32   0.0000       2.911774        79.2334 
  33   0.0000       3.898852       106.0932 
  34   0.0000       5.187223       141.1515 
  35   0.0000       5.188729       141.1925 
  36   0.0000       5.232843       142.3929 
  37   0.0000       5.233430       142.4089 
  38   0.0000       5.449134       148.2785 
  39   0.0000       5.452182       148.3614 
  40   0.0000       5.786484       157.4582 
  41   0.0000       5.787550       157.4872 
  42   0.0000       5.933249       161.4519 
  43   0.0000       6.245269       169.9424 
  44   0.0000       6.246614       169.9790 
  45   0.0000       6.373022       173.4188 
  46   0.0000       6.400787       174.1743 
  47   0.0000       6.418952       174.6686 
  48   0.0000       7.103240       193.2890 
  49   0.0000      14.504256       394.6809 
  50   0.0000      43.228258      1176.3007 

                    ********************************
                    * MULLIKEN POPULATION ANALYSIS *
                    ********************************

-----------------------
MULLIKEN ATOMIC CHARGES
-----------------------
   0 O :   -1.075371
   1 H :    0.303988
   2 Li:    0.771383
Sum of atomic charges:   -0.0000000

--------------------------------
MULLIKEN REDUCED ORBITAL CHARGES
--------------------------------
  0 O s       :     3.876488  s :     3.876488
      pz      :     1.792021  p :     5.190980
      px      :     1.660798
      py      :     1.738161
      dz2     :     0.000259  d :     0.006704
      dxz     :     0.001981
      dyz     :     0.001368
      dx2y2   :     0.000186
      dxy     :     0.002910
      f0      :     0.000183  f :     0.001199
      f+1     :     0.000070
      f-1     :     0.000045
      f+2     :     0.000073
      f-2     :     0.000451
      f+3     :     0.000133
      f-3     :     0.000244
  1 H s       :     0.647846  s :     0.647846
      pz      :     0.016041  p :     0.048167
      px      :     0.016115
      py      :     0.016010
  2 Lis       :     2.010844  s :     2.010844
      pz      :     0.075144  p :     0.217773
      px      :     0.068700
      py      :     0.073928


                     *******************************
                     * LOEWDIN POPULATION ANALYSIS *
                     *******************************

----------------------
LOEWDIN ATOMIC CHARGES
----------------------
   0 O :   -0.723633
   1 H :    0.118983
   2 Li:    0.604649

-------------------------------
LOEWDIN REDUCED ORBITAL CHARGES
-------------------------------
  0 O s       :     3.575805  s :     3.575805
      pz      :     1.761754  p :     5.129202
      px      :     1.650052
      py      :     1.717395
      dz2     :     0.000616  d :     0.017130
      dxz     :     0.005137
      dyz     :     0.003386
      dx2y2   :     0.000446
      dxy     :     0.007545
      f0      :     0.000294  f :     0.001495
      f+1     :     0.000005
      f-1     :     0.000003
      f+2     :     0.000028
      f-2     :     0.000714
      f+3     :     0.000109
      f-3     :     0.000341
  1 H s       :     0.707434  s :     0.707434
      pz      :     0.053555  p :     0.173583
      px      :     0.062566
      py      :     0.057462
  2 Lis       :     2.047298  s :     2.047298
      pz      :     0.108803  p :     0.348053
      px      :     0.125710
      py      :     0.113539


                      *****************************
                      * MAYER POPULATION ANALYSIS *
                      *****************************

  NA   - Mulliken gross atomic population
  ZA   - Total nuclear charge
  QA   - Mulliken gross atomic charge
  VA   - Mayer's total valence
  BVA  - Mayer's bonded valence
  FA   - Mayer's free valence

  ATOM       NA         ZA         QA         VA         BVA        FA
  0 O      9.0754     8.0000    -1.0754     1.3518     1.3518     0.0000
  1 H      0.6960     1.0000     0.3040     0.9217     0.9217    -0.0000
  2 Li     2.2286     3.0000     0.7714     0.4570     0.4570     0.0000

  Mayer bond orders larger than 0.100000
B(  0-O ,  1-H ) :   0.9083 B(  0-O ,  2-Li) :   0.4435 

-------
TIMINGS
-------

Total SCF time: 0 days 0 hours 0 min 1 sec 

Total time                  ....       1.724 sec
Sum of individual times     ....       1.548 sec  ( 89.8%)

Fock matrix formation       ....       1.408 sec  ( 81.6%)
  Split-RI-J                ....       0.071 sec  (  5.1% of F)
  XC integration            ....       0.607 sec  ( 43.1% of F)
    Basis function eval.    ....       0.110 sec  ( 18.1% of XC)
    Density eval.           ....       0.144 sec  ( 23.7% of XC)
    XC-Functional eval.     ....       0.176 sec  ( 29.0% of XC)
    XC-Potential eval.      ....       0.123 sec  ( 20.3% of XC)
Diagonalization             ....       0.002 sec  (  0.1%)
Density matrix formation    ....       0.000 sec  (  0.0%)
Population analysis         ....       0.003 sec  (  0.1%)
Initial guess               ....       0.002 sec  (  0.1%)
Orbital Transformation      ....       0.000 sec  (  0.0%)
Orbital Orthonormalization  ....       0.001 sec  (  0.0%)
DIIS solution               ....       0.001 sec  (  0.1%)
SOSCF solution              ....       0.006 sec  (  0.3%)
Grid generation             ....       0.125 sec  (  7.3%)

Maximum memory used throughout the entire SCF-calculation: 7.3 MB


-------------------------------------------------------------------------------
                          DFT DISPERSION CORRECTION                            
                                                                               
                              DFTD3 V3.1  Rev 1                                
                          USING Becke-Johnson damping                          
-------------------------------------------------------------------------------
The TPSS functional is recognized
Active option DFTDOPT                   ...         4   

molecular C6(AA) [au] = 191.972643 


            DFT-D V3
 parameters
 s6 scaling factor         :     1.0000 
 a1 scaling factor         :     0.4535 
 s8 scaling factor         :     1.9435 
 a2 scaling factor         :     4.4752 
 ad hoc parameters k1-k3   :    16.0000     1.3333    -4.0000 

 Edisp/kcal,au: -0.498071739327  -0.000793727755 
 E6   /kcal   :  -0.224771161 
 E8   /kcal   :  -0.273300578 
 % E8         :  54.871729617 

-------------------------   ----------------
Dispersion correction           -0.000793728
-------------------------   ----------------


-------------------------   --------------------
FINAL SINGLE POINT ENERGY       -83.439720949385
-------------------------   --------------------

                                *** OPTIMIZATION RUN DONE ***

                            ***************************************
                            *     ORCA property calculations      *
                            ***************************************

                                    ---------------------
                                    Active property flags
                                    ---------------------
   (+) Dipole Moment


------------------------------------------------------------------------------
                       ORCA ELECTRIC PROPERTIES CALCULATION
------------------------------------------------------------------------------

Dipole Moment Calculation                       ... on
Quadrupole Moment Calculation                   ... off
Polarizability Calculation                      ... off
GBWName                                         ... LiOH_freqot.gbw
Electron density                                ... LiOH_freqot.scfp
The origin for moment calculation is the CENTER OF MASS  = (-0.793162,  3.458630  0.555086)

-------------
DIPOLE MOMENT
-------------
                                X             Y             Z
Electronic contribution:     -3.08251       2.23368       1.83897
Nuclear contribution   :      1.68599      -1.28013      -1.05482
                        -----------------------------------------
Total Dipole Moment    :     -1.39652       0.95355       0.78415
                        -----------------------------------------
Magnitude (a.u.)       :      1.86398
Magnitude (Debye)      :      4.73786



--------------------
Rotational spectrum 
--------------------
 
Rotational constants in cm-1:  3865.546732     1.136929     1.136595 
Rotational constants in MHz : 115886175.624499 34084.270237 34074.248369 

 Dipole components along the rotational axes: 
x,y,z [a.u.] :    -1.863050     0.058790     0.001215 
x,y,z [Debye]:    -4.735498     0.149433     0.003089 

 

----------------------------------------------------------------------------
                           ORCA NUMERICAL FREQUENCIES
                              (2-process run)
----------------------------------------------------------------------------

Number of atoms                ... 3
Central differences            ... used
Number of displacements        ... 18
Numerical increment            ... 5.000e-03 bohr
IR-spectrum generation         ... on
Raman-spectrum generation      ... off
Surface Crossing Hessian       ... off

The output will be reduced. Please look at the following files:
SCF program output             ... >LiOH_freqot.lastscf
Integral program output        ... >LiOH_freqot.lastint
Gradient program output        ... >LiOH_freqot.lastgrad
Dipole moment program output   ... >LiOH_freqot.lastmom
AutoCI program output          ... >LiOH_freqot.lastautoci

	<< Calculating on displaced geometry   2 (of  18) >>
	<< Calculating on displaced geometry   1 (of  18) >>
	<< Calculating on displaced geometry   3 (of  18) >>
	<< Calculating on displaced geometry   4 (of  18) >>
	<< Calculating on displaced geometry   5 (of  18) >>
	<< Calculating on displaced geometry   6 (of  18) >>
	<< Calculating on displaced geometry   7 (of  18) >>
	<< Calculating on displaced geometry   8 (of  18) >>
	<< Calculating on displaced geometry  10 (of  18) >>
	<< Calculating on displaced geometry   9 (of  18) >>
	<< Calculating on displaced geometry  11 (of  18) >>
	<< Calculating on displaced geometry  12 (of  18) >>
	<< Calculating on displaced geometry  13 (of  18) >>
	<< Calculating on displaced geometry  14 (of  18) >>
	<< Calculating on displaced geometry  15 (of  18) >>
	<< Calculating on displaced geometry  16 (of  18) >>
	<< Calculating on displaced geometry  18 (of  18) >>
	<< Calculating on displaced geometry  17 (of  18) >>

-----------------------
VIBRATIONAL FREQUENCIES
-----------------------

Scaling factor for frequencies =  1.000000000 (already applied!)

   0:         0.00 cm**-1
   1:         0.00 cm**-1
   2:         0.00 cm**-1
   3:         0.00 cm**-1
   4:         0.00 cm**-1
   5:         0.00 cm**-1
   6:       188.76 cm**-1
   7:       828.26 cm**-1
   8:      3856.65 cm**-1


------------
NORMAL MODES
------------

These modes are the cartesian displacements weighted by the diagonal matrix
M(i,i)=1/sqrt(m[i]) where m[i] is the mass of the displaced atom
Thus, these vectors are normalized but *not* orthogonal

                  0          1          2          3          4          5    
      0       0.000000   0.000000   0.000000   0.000000   0.000000   0.000000
      1       0.000000   0.000000   0.000000   0.000000   0.000000   0.000000
      2       0.000000   0.000000   0.000000   0.000000   0.000000   0.000000
      3       0.000000   0.000000   0.000000   0.000000   0.000000   0.000000
      4       0.000000   0.000000   0.000000   0.000000   0.000000   0.000000
      5       0.000000   0.000000   0.000000   0.000000   0.000000   0.000000
      6       0.000000   0.000000   0.000000   0.000000   0.000000   0.000000
      7       0.000000   0.000000   0.000000   0.000000   0.000000   0.000000
      8       0.000000   0.000000   0.000000   0.000000   0.000000   0.000000
                  6          7          8    
      0       0.073339  -0.251437  -0.043544
      1       0.051885   0.186694   0.036092
      2       0.042753   0.153835   0.029739
      3      -0.726140  -0.307470   0.678698
      4      -0.520882   0.167391  -0.564637
      5      -0.429204   0.137930  -0.465258
      6      -0.063594   0.624214   0.001806
      7      -0.043951  -0.454638  -0.001192
      8      -0.036215  -0.374619  -0.000982


-----------
IR SPECTRUM
-----------

 Mode   freq       eps      Int      T**2         TX        TY        TZ
       cm**-1   L/(mol*cm) km/mol    a.u.
----------------------------------------------------------------------------
  6:    188.76   0.043986  222.29  0.072720  (-0.204750 -0.135234 -0.111846)
  7:    828.26   0.038523  194.68  0.014514  ( 0.085601 -0.065481 -0.053843)
  8:   3856.65   0.007456   37.68  0.000603  ( 0.017327 -0.013406 -0.011107)

* The epsilon (eps) is given for a Dirac delta lineshape.
** The dipole moment derivative (T) already includes vibrational overlap.

The first frequency considered to be a vibration is 6
The total number of vibrations considered is 3


--------------------------
THERMOCHEMISTRY AT 298.15K
--------------------------

Temperature         ... 298.15 K
Pressure            ... 1.00 atm
Total Mass          ... 23.95 AMU

Throughout the following assumptions are being made:
  (1) The electronic state is orbitally nondegenerate
  (2) There are no thermally accessible electronically excited states
  (3) Hindered rotations indicated by low frequency modes are not
      treated as such but are treated as vibrations and this may
      cause some error
  (4) All equations used are the standard statistical mechanics
      equations for an ideal gas
  (5) All vibrations are strictly harmonic

freq.     188.76  E(vib)   ...       0.36 
freq.     828.26  E(vib)   ...       0.04 
freq.    3856.65  E(vib)   ...       0.00 

------------
INNER ENERGY
------------

The inner energy is: U= E(el) + E(ZPE) + E(vib) + E(rot) + E(trans)
    E(el)   - is the total energy from the electronic structure calculation
              = E(kin-el) + E(nuc-el) + E(el-el) + E(nuc-nuc)
    E(ZPE)  - the the zero temperature vibrational energy from the frequency calculation
    E(vib)  - the the finite temperature correction to E(ZPE) due to population
              of excited vibrational states
    E(rot)  - is the rotational thermal energy
    E(trans)- is the translational thermal energy

Summary of contributions to the inner energy U:
Electronic energy                ...    -83.43972095 Eh
Zero point energy                ...      0.01110303 Eh       6.97 kcal/mol
Thermal vibrational correction   ...      0.00064922 Eh       0.41 kcal/mol
Thermal rotational correction    ...      0.00141627 Eh       0.89 kcal/mol
Thermal translational correction ...      0.00141627 Eh       0.89 kcal/mol
-----------------------------------------------------------------------
Total thermal energy                    -83.42513616 Eh


Summary of corrections to the electronic energy:
(perhaps to be used in another calculation)
Total thermal correction                  0.00348177 Eh       2.18 kcal/mol
Non-thermal (ZPE) correction              0.01110303 Eh       6.97 kcal/mol
-----------------------------------------------------------------------
Total correction                          0.01458479 Eh       9.15 kcal/mol


--------
ENTHALPY
--------

The enthalpy is H = U + kB*T
                kB is Boltzmann's constant
Total free energy                 ...    -83.42513616 Eh 
Thermal Enthalpy correction       ...      0.00094421 Eh       0.59 kcal/mol
-----------------------------------------------------------------------
Total Enthalpy                    ...    -83.42419195 Eh


Note: Rotational entropy computed according to Herzberg 
Infrared and Raman Spectra, Chapter V,1, Van Nostrand Reinhold, 1945 
Point Group:  Cs, Symmetry Number:   1  
Rotational constants in cm-1:  3865.546732     1.136929     1.136595 

Vibrational entropy computed according to the QRRHO of S. Grimme
Chem.Eur.J. 2012 18 9955


-------
ENTROPY
-------

The entropy contributions are T*S = T*(S(el)+S(vib)+S(rot)+S(trans))
     S(el)   - electronic entropy
     S(vib)  - vibrational entropy
     S(rot)  - rotational entropy
     S(trans)- translational entropy
The entropies will be listed as multiplied by the temperature to get
units of energy

Electronic entropy                ...      0.00000000 Eh      0.00 kcal/mol
Vibrational entropy               ...      0.00115196 Eh      0.72 kcal/mol
Rotational entropy                ...      0.00549038 Eh      3.45 kcal/mol
Translational entropy             ...      0.01684699 Eh     10.57 kcal/mol
-----------------------------------------------------------------------
Final entropy term                ...      0.02348933 Eh     14.74 kcal/mol

In case the symmetry of your molecule has not been determined correctly
or in case you have a reason to use a different symmetry number we print 
out the resulting rotational entropy values for sn=1,12 :
 --------------------------------------------------------
|  sn= 1 | S(rot)=       0.00549038 Eh      3.45 kcal/mol|
|  sn= 2 | S(rot)=       0.00483592 Eh      3.03 kcal/mol|
|  sn= 3 | S(rot)=       0.00445309 Eh      2.79 kcal/mol|
|  sn= 4 | S(rot)=       0.00418147 Eh      2.62 kcal/mol|
|  sn= 5 | S(rot)=       0.00397078 Eh      2.49 kcal/mol|
|  sn= 6 | S(rot)=       0.00379864 Eh      2.38 kcal/mol|
|  sn= 7 | S(rot)=       0.00365309 Eh      2.29 kcal/mol|
|  sn= 8 | S(rot)=       0.00352701 Eh      2.21 kcal/mol|
|  sn= 9 | S(rot)=       0.00341580 Eh      2.14 kcal/mol|
|  sn=10 | S(rot)=       0.00331632 Eh      2.08 kcal/mol|
|  sn=11 | S(rot)=       0.00322633 Eh      2.02 kcal/mol|
|  sn=12 | S(rot)=       0.00314418 Eh      1.97 kcal/mol|
 --------------------------------------------------------


-------------------
GIBBS FREE ENERGY
-------------------

The Gibbs free energy is G = H - T*S

Total enthalpy                    ...    -83.42419195 Eh 
Total entropy correction          ...     -0.02348933 Eh    -14.74 kcal/mol
-----------------------------------------------------------------------
Final Gibbs free energy         ...    -83.44768128 Eh

For completeness - the Gibbs free energy minus the electronic energy
G-E(el)                           ...     -0.00796033 Eh     -5.00 kcal/mol



Timings for individual modules:

Sum of individual times         ...      166.569 sec (=   2.776 min)
GTO integral calculation        ...       11.020 sec (=   0.184 min)   6.6 %
SCF iterations                  ...       52.092 sec (=   0.868 min)  31.3 %
SCF Gradient evaluation         ...       19.931 sec (=   0.332 min)  12.0 %
Geometry relaxation             ...        0.940 sec (=   0.016 min)   0.6 %
Numerical frequency calculation ...       82.585 sec (=   1.376 min)  49.6 %
                             ****ORCA TERMINATED NORMALLY****
TOTAL RUN TIME: 0 days 0 hours 2 minutes 49 seconds 954 msec
‘LiOH_freqot.cpcm’ -> ‘/home/rothe/Calc/Li_Path/THF/LiOH/LiOH_freqot.cpcm’
‘LiOH_freqot.densities’ -> ‘/home/rothe/Calc/Li_Path/THF/LiOH/LiOH_freqot.densities’
‘LiOH_freqot.engrad’ -> ‘/home/rothe/Calc/Li_Path/THF/LiOH/LiOH_freqot.engrad’
‘LiOH_freqot.gbw’ -> ‘/home/rothe/Calc/Li_Path/THF/LiOH/LiOH_freqot.gbw’
‘LiOH_freqot.hess’ -> ‘/home/rothe/Calc/Li_Path/THF/LiOH/LiOH_freqot.hess’
‘LiOH_freqot.job’ -> ‘/home/rothe/Calc/Li_Path/THF/LiOH/LiOH_freqot.job’
‘LiOH_freqot.opt’ -> ‘/home/rothe/Calc/Li_Path/THF/LiOH/LiOH_freqot.opt’
‘LiOH_freqot_property.txt’ -> ‘/home/rothe/Calc/Li_Path/THF/LiOH/LiOH_freqot_property.txt’
‘LiOH_freqot_trj.xyz’ -> ‘/home/rothe/Calc/Li_Path/THF/LiOH/LiOH_freqot_trj.xyz’
‘LiOH_freqot.xyz’ -> ‘/home/rothe/Calc/Li_Path/THF/LiOH/LiOH_freqot.xyz’
