57
 energy: -96.236925009159 gnorm: 0.000508684590 xtb: 6.4.1 (afa7bdf)
C         2.99493106623506   -1.78434287992623   -1.09771440405811
C         2.47803928177692   -2.89156731432715   -1.76200882846144
C         3.04891649810523   -4.13910417583898   -1.56045063857604
C         4.13369776158637   -4.30135525275630   -0.72184338095819
C         4.66272026416168   -3.19656030786043   -0.05622723474074
C         4.08113976980590   -1.95154058047075   -0.24030383558122
H         4.47927208607951   -1.09124922982195    0.27514537240129
H         1.63568345868492   -2.79876733196403   -2.42838260450112
H         2.63257767256798   -4.99511344417901   -2.07062692292563
H         4.55407877072994   -5.28165418939193   -0.56275389583344
C         5.82236867005778   -3.30331678468225    0.87675969255696
O         2.52040301450235   -0.51212689197411   -1.21059621000996
C         1.42960827578122   -0.26810560719318   -2.07607221214942
H         1.67695237126430   -0.52768099602823   -3.10972542420632
H         1.23946605608593    0.80125148054444   -2.00509428028169
H         0.53920734605185   -0.81937224490863   -1.75980173478854
C         6.85140666251771   -4.19379656797681    0.54425518173975
O         5.81843464173347   -2.56794700390265    1.89678718148149
C         8.01180851270225   -4.34224708417405    1.30713183957102
H         6.76936400093712   -4.74426842449341   -0.37742320795561
O         8.26959009500184   -3.70437547819256    2.36223434424248
Li        7.14944160140713   -2.51411665065285    3.09702401404988
C         9.04578573091130   -5.30745283180686    0.82306610571340
C         8.71219222001014   -6.51110128194457    0.20827866563208
C        10.38985180284016   -5.00772202126890    1.03409859358089
C        11.38142749381153   -5.87277036421697    0.61533198835631
C        11.04263318048637   -7.05659666812055   -0.03433174605458
C         9.70029682015970   -7.37768385132197   -0.22006948039021
C        12.12898372823648   -8.00460137221693   -0.42271158995254
O        12.26776904024919   -8.35478935056895   -1.70299084414411
O        12.89571558606411   -8.46477221909160    0.39299788033079
C        11.47937796215234   -7.77125918636510   -2.73608246386102
H        10.58852271537531   -8.37647396095004   -2.91055274798949
H        12.10709447835928   -7.78334752373339   -3.62580309511427
H        11.19032782482402   -6.74875429354069   -2.49157114195360
H         9.42808604214339   -8.31754865884827   -0.67661415337109
H         7.67570846379565   -6.78150711412428    0.08135547635917
H        12.42207025218787   -5.63981308077763    0.78342415844751
H        10.64122798532170   -4.08500245480736    1.53446832678147
O         6.75118876525526   -3.08352342817984    4.95380018628371
O         7.46175721964968   -0.61620701672931    3.59061429511816
C         7.60828932607754   -3.83855152185373    5.66702752197762
C         7.12161887326969   -4.05840966233250    6.91555451044296
C         5.87171730332862   -3.38886740374173    6.97176442931435
C         5.69958349557187   -2.81690625378406    5.75221508495292
H         5.20534335970415   -3.34655001221230    7.80854840237771
H         4.90657374327814   -2.22330482340656    5.34226398053308
H         8.50642661549186   -4.15567392831261    5.17642577851934
H         7.58303466512913   -4.62123610326519    7.70073389931878
C         8.44431903629556    0.13387433573167    4.12721216530150
C         7.97256165347745    1.35933512048347    4.47289598049039
C         6.59854016594955    1.36231957639691    4.11845878643161
C         6.34591570726004    0.13834892287676    3.58834348459289
H         5.90520095466345    2.16796195545785    4.24603701833887
H         5.46087747216715   -0.30203450328209    3.17670122718419
H         9.41803374874007   -0.30726117766002    4.20791964694550
H         8.52022776030617    2.16273326512484    4.92058666909806
