57
 energy: -96.177101278727 gnorm: 0.196377257793 xtb: 6.4.1 (afa7bdf)
C         2.97785319400000   -1.28347879990000   -1.14147495420000
C         2.76809270510000   -2.11707937350000   -2.25437640050000
C         3.50384153110000   -3.28791047430000   -2.40184597040000
C         4.46280487840000   -3.64544288380000   -1.45607972900000
C         4.70351492120000   -2.84107900930000   -0.32265610520000
C         3.93738041050000   -1.65624316550000   -0.17875202620000
H         4.09196929380000   -1.00361546650000    0.67190700870000
H         2.03776847770000   -1.87179699660000   -3.01399196980000
H         3.33089555320000   -3.92730957900000   -3.25745291760000
H         4.98753650070000   -4.56892286300000   -1.62820881950000
C         5.73590182110000   -3.21898779410000    0.71014369860000
O         2.28437172430000   -0.12432415940000   -0.97120942970000
C         1.33616101400000    0.37974592360000   -1.84436743110000
H         1.78836920650000    0.56162059670000   -2.84384848030000
H         0.94902014580000    1.34459787740000   -1.45719532080000
H         0.48414727170000   -0.32721594340000   -1.94208520630000
C         6.77650235760000   -4.23459661400000    0.46946536280000
O         5.71936643300000   -2.65529994640000    1.78330840620000
C         7.78943878800000   -4.53989616080000    1.31957094820000
H         6.73035816870000   -4.71444128150000   -0.48462085310000
O         7.94577855630000   -3.90052106830000    2.51107825640000
Li        6.74817137700000   -2.80579857400000    3.33590836950000
C         8.79631877720000   -5.57885260820000    0.96681523510000
C         8.67753436330000   -6.41515147490000   -0.16202719110000
C         9.91582106240000   -5.73955338450000    1.79358117930000
C        10.90445108720000   -6.66447183340000    1.49105029030000
C        10.80900678500000   -7.46459640590000    0.34179937870000
C         9.66789795610000   -7.33845694730000   -0.46733864790000
C        11.90016912560000   -8.43276329750000    0.03543416190000
O        12.03968796650000   -9.06800976800000   -1.15912931990000
O        12.71405049110000   -8.68850156240000    0.90905030110000
C        11.74596158540000   -8.55748851290000   -2.40904716180000
H        10.92166964240000   -9.14180649420000   -2.86802769360000
H        12.64533891810000   -8.65214992240000   -3.04960433390000
H        11.48668884190000   -7.47723931890000   -2.37812829110000
H         9.50967172890000   -7.94994104600000   -1.33952811690000
H         7.83409123650000   -6.39004004870000   -0.83147154170000
H        11.75507126700000   -6.73194215780000    2.15631479380000
H        10.05126470880000   -5.14123932840000    2.67249914730000
O         7.79007509080000   -2.89099023930000    5.06837197960000
O         6.24549256630000   -1.01981233800000    3.80926456090000
C         8.93692576640000   -3.53004258820000    5.13962632900000
C         9.45838442080000   -3.47022378650000    6.40482486170000
C         8.55743887960000   -2.75453882240000    7.14804840110000
C         7.53647552220000   -2.39891012020000    6.27523200030000
H         8.65256999460000   -2.52829937310000    8.20419123700000
H         6.66105412800000   -1.82952082970000    6.56103266670000
H         9.42016900230000   -4.01285673830000    4.32595027790000
H        10.39452420020000   -3.90664082600000    6.72968058700000
C         6.69693490760000    0.12423400030000    4.29741990700000
C         5.65800254850000    1.05103399210000    4.25830055860000
C         4.56668931860000    0.38947500470000    3.75198381650000
C         4.97464117000000   -0.87473957090000    3.52913026870000
H         3.56466587600000    0.73077522960000    3.54935857560000
H         4.32598909400000   -1.65052651850000    3.16399582940000
H         7.70792563540000    0.32926910100000    4.63647517600000
H         5.66549107670000    2.09000843720000    4.55136415150000
57
 energy: -96.205125352529 gnorm: 0.104251070752 xtb: 6.4.1 (afa7bdf)
C         2.98972707572328   -1.29463210211739   -1.14148915496055
C         2.77336728116366   -2.11836268279047   -2.25004474249489
C         3.50561623897190   -3.28557535655296   -2.39465810940293
C         4.46308822533093   -3.64740923338877   -1.46049953629987
C         4.71053194457344   -2.84698837420357   -0.34158356824938
C         3.94988897452011   -1.67324462799967   -0.19180282954119
H         4.10587044824070   -1.02715102872921    0.66179364615379
H         2.04107534264066   -1.86457989217302   -3.00251161869029
H         3.33109415622572   -3.92113508432570   -3.25055513229871
H         4.99353352105236   -4.57057954517637   -1.62023276805812
C         5.73935413317212   -3.22151667703079    0.69411279615865
O         2.31092506319006   -0.12844608045919   -0.93729897732529
C         1.35502051567185    0.35507761786540   -1.84111372629288
H         1.78584586378911    0.54782585039003   -2.83695898004299
H         0.98184194078760    1.30716172376351   -1.44473058933616
H         0.49813984829302   -0.32942493406937   -1.94580023473043
C         6.75500279851351   -4.22015034101812    0.43497794981981
O         5.70670614448693   -2.65293556815508    1.79152471558057
C         7.77258600046313   -4.53441424803895    1.30645177623095
H         6.71893538750792   -4.71263673827913   -0.51667279416948
O         7.92791215933757   -3.93791665408101    2.46188451216573
Li        6.78717425202802   -2.80042742381325    3.30930914299505
C         8.78764759195834   -5.57340883907784    0.96061359629220
C         8.67704556626632   -6.41103487770240   -0.15621809776845
C         9.91082275881895   -5.74073823799792    1.77617012295869
C        10.90096302216608   -6.65944708298934    1.47150025151867
C        10.81153386069820   -7.45286865954954    0.32397260569748
C         9.66522813024181   -7.32987333283429   -0.46682240105128
C        11.91171703975127   -8.41599153603067    0.04442057516831
O        12.04701793031689   -9.05807195476680   -1.13804907658076
O        12.70095064301897   -8.70999491736556    0.92263708317249
C        11.74081976429243   -8.54340274883121   -2.40417306730524
H        10.92571070540135   -9.12351072647596   -2.85892651338064
H        12.63418288315340   -8.65757943205455   -3.03513923646395
H        11.47771276568273   -7.47814609281870   -2.38015345064324
H         9.50812275954326   -7.95732412629443   -1.32848907461660
H         7.82638955467624   -6.37687805233887   -0.81597638722540
H        11.75283767633431   -6.74515985669582    2.13171128902200
H        10.03309447684063   -5.13684373388034    2.65886180294954
O         7.79501112767561   -2.89464957350685    5.08475978424904
O         6.23269747322001   -1.02123591217655    3.83684304818089
C         8.95493548772235   -3.53357994171590    5.14797755490068
C         9.47181104958515   -3.47691026937081    6.41193776810456
C         8.55257138188548   -2.74530586738460    7.16654559906612
C         7.53960715526005   -2.40768262952445    6.30235521703350
H         8.63567912451228   -2.51013928016871    8.21066031061483
H         6.65891807719001   -1.84006513977947    6.54360581687807
H         9.40444366423873   -4.01076452634847    4.30593555014019
H        10.39896604919371   -3.91033418175176    6.73476832441238
C         6.68230808394835    0.15177066190387    4.28960451381278
C         5.66459032711462    1.07657628817052    4.26371900139482
C         4.54528323909768    0.40519234976362    3.76453133409957
C         4.95070560835072   -0.87328639645539    3.53971374305312
H         3.55338369659159    0.76102593930219    3.56798353465170
H         4.33447460996931   -1.66679759159040    3.16985076402357
H         7.69429791968620    0.31503159600797    4.61823757851754
H         5.69267055101328    2.10638422951244    4.56063856871139
57
 energy: -96.218114030500 gnorm: 0.031483982558 xtb: 6.4.1 (afa7bdf)
C         3.00537786134766   -1.30745522613914   -1.14261383698951
C         2.77945294622099   -2.12028793988185   -2.24845947326876
C         3.50869219488454   -3.28647952977755   -2.39354488186805
C         4.46515532388388   -3.65669514042686   -1.46983568240347
C         4.72060375337914   -2.85996185661156   -0.35859863469040
C         3.96887660785043   -1.69215836323856   -0.20406174140172
H         4.12922550642048   -1.05264917094001    0.65244412972488
H         2.04341903817271   -1.85792743678208   -2.99211220287420
H         3.32645283978445   -3.91925122950657   -3.24892076402154
H         4.99899407222646   -4.58041148588535   -1.61736452598383
C         5.75070648474085   -3.23710085625530    0.67199463028286
O         2.34022670683816   -0.13454891282572   -0.90280866894402
C         1.37638597655258    0.33178199150021   -1.83272136928090
H         1.80590868289436    0.52075771926164   -2.82019189107724
H         1.01638841528635    1.27504341228636   -1.42453404698138
H         0.52799453261146   -0.35025637182366   -1.93440217938893
C         6.73775625477063   -4.20609136817619    0.39918354267791
O         5.69764022786616   -2.66141099435744    1.78665000803446
C         7.75815796304835   -4.52794211450638    1.30060474361425
H         6.72175834743081   -4.70293265726196   -0.55233806449917
O         7.91037903843278   -3.97137508605536    2.41177919346627
Li        6.82819284420929   -2.78854776125153    3.26856228534542
C         8.78109233310761   -5.56747400500918    0.94274404703771
C         8.67412391802697   -6.41024627986484   -0.16239581878765
C         9.90745958375837   -5.73540575319523    1.75218798750127
C        10.89819391476234   -6.64649965233050    1.44590463866184
C        10.80993854268140   -7.44142037758196    0.30059323648236
C         9.65861994155645   -7.32717012153929   -0.47628224160196
C        11.90383701088824   -8.42052203224663    0.05969947859586
O        12.06322300480460   -9.04579705642587   -1.11987867366625
O        12.67924258340625   -8.72741177175460    0.94030714268431
C        11.73572109183569   -8.52339303872808   -2.40076582077962
H        10.92638433747303   -9.10970733681354   -2.83941879974034
H        12.62721107437028   -8.65204727214757   -3.01911674187290
H        11.46831138471633   -7.47098774392078   -2.36857670506877
H         9.50264147514991   -7.97356995963559   -1.32485188514789
H         7.80987480729382   -6.37074106631685   -0.80484871149611
H        11.75333047899673   -6.75142010891464    2.09850658311292
H        10.01123392601778   -5.12774407282970    2.63953392829734
O         7.79627160677422   -2.89980318699715    5.09901093435088
O         6.20905308695395   -1.01234016456452    3.86590652366856
C         8.97254693514600   -3.53854646253585    5.16218264882366
C         9.48656623177846   -3.48061357726720    6.41951484805950
C         8.54916303853888   -2.74233480632153    7.18504463350929
C         7.54609601001610   -2.41696652049745    6.33037188410281
H         8.62300180359628   -2.49856636591432    8.22103739716494
H         6.65204400938231   -1.85420011865427    6.51469968012203
H         9.37441401420909   -4.00538742420254    4.28552106714590
H        10.40771870991659   -3.90878306105653    6.74633822517465
C         6.66106160643790    0.18518738841366    4.28981201724266
C         5.66749103544205    1.10913197936563    4.26509272640922
C         4.51933558836838    0.43008292658155    3.78333002060284
C         4.90928978917246   -0.85718344737006    3.57182651363900
H         3.53863416491702    0.80957717515303    3.59633851014851
H         4.33288508535385   -1.67589867947644    3.20064937781868
H         7.68311900946128    0.28763696546261    4.60265364052068
H         5.72051231793650    2.13395955459094    4.55832694861108
57
 energy: -96.222027593284 gnorm: 0.022351561769 xtb: 6.4.1 (afa7bdf)
C         3.02450256386841   -1.32101381646416   -1.14019741362005
C         2.78654597646599   -2.12663725099417   -2.24811331335435
C         3.50886942364507   -3.29719092860963   -2.40155828598107
C         4.46738239585029   -3.67509803038674   -1.48368835444857
C         4.73000343550549   -2.87857086699555   -0.37167695472829
C         3.99078995516136   -1.70913724801875   -0.20925071386212
H         4.16160066812694   -1.07467323116046    0.64829390118168
H         2.04694551983185   -1.85706184878638   -2.98531891971088
H         3.31716877097739   -3.92584519688803   -3.25805789590800
H         4.99702125878412   -4.60136064290859   -1.62912318729545
C         5.75638340216311   -3.25223733422429    0.65749007403826
O         2.36750064311694   -0.14811894267184   -0.88447859484180
C         1.40026122152834    0.31521782606938   -1.81457375415395
H         1.83593832663205    0.49697177150989   -2.80022630510433
H         1.04315105002864    1.25716963266210   -1.40231866100241
H         0.55908298280384   -0.37604286446752   -1.90982936064522
C         6.74176493834857   -4.20414020367899    0.36799809111461
O         5.69648726263600   -2.67142065487132    1.77428493061272
C         7.76059717203554   -4.52528717657258    1.27919800979689
H         6.73996506447714   -4.68600603706625   -0.59147817238485
O         7.89766062642477   -3.98640187639844    2.40432059512118
Li        6.84311085267821   -2.76669257314975    3.24116295819520
C         8.78041397794460   -5.56736881367554    0.91192336954753
C         8.66742172865014   -6.41771130867086   -0.18512968095863
C         9.90560862268451   -5.72456796222211    1.72465498771954
C        10.89437061739411   -6.63652832414324    1.42554486288443
C        10.80246747302423   -7.44108314261680    0.28701858811916
C         9.65074351406828   -7.33789968736724   -0.49201493963593
C        11.90041096949298   -8.41848226567595    0.06470621000862
O        12.07666843244658   -9.03675430138463   -1.11347792105047
O        12.64126294393675   -8.75476633252616    0.96902437686610
C        11.73595367208515   -8.50936272345924   -2.39451271971511
H        10.92075780604720   -9.09648440771255   -2.82077012383291
H        12.62494514401667   -8.64156625243747   -3.01326542324855
H        11.46939868239773   -7.45652988662833   -2.35155858089426
H         9.49233600615995   -7.99904268015374   -1.32885597557402
H         7.79337600845073   -6.38277587745805   -0.81486316961315
H        11.75517050779843   -6.74076744611888    2.06955101517165
H        10.00052155689504   -5.11050311630208    2.60850611391147
O         7.79385493629534   -2.90712771092322    5.10589256345332
O         6.17951573968027   -0.99653478898936    3.88609785742056
C         8.97696342486719   -3.54232384156274    5.17393650450264
C         9.49004244157797   -3.47903361840361    6.42899521607461
C         8.54734922803563   -2.74067668195378    7.19510874070216
C         7.54270808753488   -2.42504959799117    6.34062097054026
H         8.61878307535206   -2.49027718297591    8.23148724844871
H         6.63876691849859   -1.86962810858105    6.50004833760651
H         9.35856059084461   -4.00176723420980    4.28514206611030
H        10.41345248594908   -3.90104577194722    6.76242424781328
C         6.64713353420914    0.20358184675120    4.29374502067168
C         5.66458758729984    1.13722106992733    4.27234241228209
C         4.50017100842443    0.46176071250312    3.81242837491003
C         4.87262840491129   -0.82939891964906    3.60863472756310
H         3.52316140410603    0.86181205500779    3.63953496844147
H         4.30620387899519   -1.66027998598399    3.24896449487535
H         7.67983022721879    0.27495510212231    4.58451674377938
H         5.73911492271574    2.16707882628380    4.55044965287967
57
 energy: -96.224834381801 gnorm: 0.015385745232 xtb: 6.4.1 (afa7bdf)
C         3.04667588796618   -1.33609154526569   -1.13751816445767
C         2.79549294840128   -2.13576087805011   -2.24722284900371
C         3.50843694123210   -3.31290155001019   -2.41047917328592
C         4.46813448068325   -3.70029886103138   -1.49764878527491
C         4.73922603127177   -2.90203445004380   -0.38477097277065
C         4.01533889671704   -1.72862732382079   -0.21460288957773
H         4.20209191768729   -1.09959229292296    0.64284119791412
H         2.05308717176337   -1.85956204144814   -2.97847961775669
H         3.30533680370898   -3.93629712046021   -3.26862804255983
H         4.99025799598437   -4.63075154473457   -1.64277350691827
C         5.76539178061863   -3.26003956095615    0.64231583820610
O         2.40045581292143   -0.16406674924564   -0.86763802858914
C         1.42927440359829    0.29998986897899   -1.79021020690742
H         1.86958213335590    0.47447770049792   -2.77597079507201
H         1.07275987156187    1.24142048389062   -1.37703733298607
H         0.59451300290774   -0.40150390166668   -1.87707824352538
C         6.75388795404249   -4.20287713949763    0.33801579910661
O         5.69475122228369   -2.67856902579125    1.75966872667017
C         7.76245141320228   -4.53429369925921    1.25539868509759
H         6.76915398410003   -4.65651047260490   -0.63501374898024
O         7.88809479608310   -4.00223860414679    2.39332033846124
Li        6.85816545745949   -2.74416754339524    3.20468370911385
C         8.78240465617838   -5.56894428539144    0.87565994021830
C         8.65578936214055   -6.43229306192408   -0.20983958766323
C         9.91193292881653   -5.70464611587898    1.68599076450161
C        10.89881569815239   -6.61807279864699    1.39259350030265
C        10.79199565326693   -7.44568833385902    0.27041392399088
C         9.63699800476186   -7.35861809233505   -0.50767458380981
C        11.87628614640868   -8.44429801506372    0.07671095173717
O        12.10102461871478   -9.02993226136952   -1.10926607073567
O        12.59025752281305   -8.78383795074846    0.99974691060955
C        11.74091897282019   -8.48940796464414   -2.38238975909711
H        10.92046673806976   -9.07663747793434   -2.79938690559958
H        12.62343935847944   -8.61400297936110   -3.01010831489372
H        11.47071865649356   -7.43607087258712   -2.32081083140815
H         9.47169490000885   -8.03787152189650   -1.32846444045817
H         7.77236699752771   -6.40384816011859   -0.82678373653946
H        11.76533342460999   -6.72169360663722    2.02795025517877
H        10.00059200589873   -5.07836097921451    2.56030036106422
O         7.79003353675099   -2.91604921267509    5.11381784309438
O         6.14247976362850   -0.97898693625716    3.90629903382386
C         8.97902494186538   -3.54624818857121    5.18788615584472
C         9.48995038922719   -3.47393363955179    6.44152257881184
C         8.54232141816962   -2.73900438949653    7.20523845613736
C         7.53562107404437   -2.43165692487147    6.34917278000897
H         8.61124681296203   -2.48340880383976    8.24274850690241
H         6.62090224613229   -1.88827349984546    6.48711910562015
H         9.34026967762561   -3.99993949151832    4.28986556258708
H        10.41629064540063   -3.88722282261311    6.78471087998127
C         6.63278187767664    0.21959512340824    4.29491451287816
C         5.66046301486986    1.16546876021914    4.28083483231368
C         4.47998315522345    0.49922465609256    3.84751495433495
C         4.83145904664130   -0.79482155752252    3.64604093395638
H         3.50699854197715    0.92483498658977    3.69948895230130
H         4.27153048516095   -1.63960751125731    3.30460522979217
H         7.67378401331423    0.26153400562922    4.56092328535039
H         5.75865187771657    2.20051032147476    4.54119189275828
57
 energy: -96.226208957708 gnorm: 0.018229712937 xtb: 6.4.1 (afa7bdf)
C         3.06213332622834   -1.34620326112140   -1.13752961810670
C         2.80192680125155   -2.14443455512888   -2.24645419599433
C         3.50672291380486   -3.32718378159546   -2.41473567953173
C         4.46754531404309   -3.72168732780043   -1.50608879074549
C         4.74713836351359   -2.92095403135172   -0.39551792550994
C         4.03421487566593   -1.74281192316737   -0.22177521521062
H         4.23426079777883   -1.11804857496681    0.63537275167178
H         2.05882973348024   -1.86500177441026   -2.97515506199956
H         3.29438004286339   -3.94729921821724   -3.27322974024619
H         4.98045176756096   -4.65761868091969   -1.65068746749334
C         5.77058263076099   -3.26872842640942    0.63277783417890
O         2.42607333948397   -0.17365536337740   -0.85934999046134
C         1.45015811244252    0.29338428479546   -1.77093225744390
H         1.88733079251605    0.46529718739702   -2.75911177296315
H         1.09468751349638    1.23484923462277   -1.35732939718761
H         0.61706195113336   -0.41172824491915   -1.85089040495193
C         6.77110164282205   -4.19919237847285    0.31924671223112
O         5.69453571460232   -2.68620396359014    1.74698071524012
C         7.77331499859133   -4.53636650189078    1.23378213028156
H         6.79510111409013   -4.63061960016008   -0.66331305324627
O         7.88930901793270   -4.00941378576999    2.37783008643724
Li        6.86504093272364   -2.73623060229753    3.17419915465923
C         8.78736478349457   -5.57033237404631    0.85262661046427
C         8.64442676244840   -6.44898122103604   -0.21979980481538
C         9.92616599887558   -5.68557120716054    1.65280592876038
C        10.90623886294283   -6.60769594376081    1.36694523230830
C        10.78256920644147   -7.45656603217558    0.26182902616192
C         9.62221302826458   -7.38261155157976   -0.51041556709499
C        11.86591239923366   -8.45699108169842    0.07869836083878
O        12.12270373105611   -9.02090993382749   -1.11015323070550
O        12.53296945293188   -8.83561358241571    1.02906049807000
C        11.74779737284612   -8.47121874762015   -2.37382723691408
H        10.91875403136233   -9.05055811393649   -2.78541444060601
H        12.62286924257803   -8.59223244535384   -3.01266121400903
H        11.48308015513273   -7.41655612180333   -2.29686000366667
H         9.44931808404676   -8.07535910100032   -1.31813813678081
H         7.75453710126748   -6.42713808619561   -0.82768959064460
H        11.78450089437022   -6.69885782194516    1.98781605368534
H        10.02075305503778   -5.03781268135276    2.50965826040205
O         7.78414220288198   -2.92273833785204    5.11976518147806
O         6.11139496354380   -0.96746666217331    3.91563277343024
C         8.97648530937542   -3.54827487381271    5.19719088131465
C         9.48453615326895   -3.46790603809840    6.45112164484500
C         8.53321312433941   -2.73724556402860    7.21095920936438
C         7.52492263609446   -2.43589601205015    6.35376707919171
H         8.60066826561768   -2.47934482852377    8.24856045279243
H         6.60377000554072   -1.90301454364572    6.48268438080424
H         9.32665480126817   -4.00055888800082    4.29558105713968
H        10.41252200691101   -3.87284428518329    6.80200343453034
C         6.62378203372082    0.22664248672573    4.28983152399745
C         5.66035897698964    1.18319059331201    4.28625962630556
C         4.46620293069213    0.52930787600614    3.87742471898290
C         4.79793749347834   -0.76850447953275    3.67531149928435
H         3.49782798715633    0.97538370317103    3.75417650866458
H         4.23502770433470   -1.61910055999545    3.35202449997928
H         7.66824359961478    0.25161765260468    4.53791862978046
H         5.77562301715311    2.21910424353613    4.53692714985238
57
 energy: -96.227225062144 gnorm: 0.012957088751 xtb: 6.4.1 (afa7bdf)
C         3.07452401294940   -1.35259597490921   -1.14039209545905
C         2.80717980331471   -2.15229974183373   -2.24651126517682
C         3.50432538557431   -3.34000075430725   -2.41547263119000
C         4.46645812335347   -3.73969710307184   -1.51038129858374
C         4.75475817954006   -2.93584247872907   -0.40478370022978
C         4.04919703309198   -1.75369637036018   -0.23034453986829
H         4.26076168926361   -1.13128095974170    0.62545642528601
H         2.06378484869853   -1.87161191063115   -2.97425982214068
H         3.28375466463187   -3.95900457539786   -3.27264429273148
H         4.97097112222900   -4.68081220912069   -1.65400127856771
C         5.77981593237650   -3.27291473645069    0.62304421441548
O         2.44830362746918   -0.17802231068483   -0.85698061362346
C         1.46600544214378    0.29213679555201   -1.75660325312108
H         1.89382574053295    0.46517715380131   -2.74892808943763
H         1.11401981473359    1.23373442412709   -1.34024322860745
H         0.63105802635365   -0.41161410920158   -1.83048280930750
C         6.79111304185384   -4.19191341817990    0.30381038395495
O         5.69576094841450   -2.69598934355769    1.73744877955022
C         7.78773206378622   -4.53527520256580    1.21565564129302
H         6.81852008060825   -4.60668150286886   -0.68563325935204
O         7.89810051849852   -4.01271015561584    2.36304461822052
Li        6.86458294553233   -2.74176126197566    3.15052658784676
C         8.79666566913006   -5.57005790811037    0.83599980234921
C         8.63416879996362   -6.46841273728954   -0.21849462277323
C         9.95011453790143   -5.66467053282893    1.61786735529688
C        10.92276855258216   -6.59633323711543    1.33731466004073
C        10.77485869990366   -7.47314211819180    0.25614861501921
C         9.60568124856167   -7.41133766180493   -0.50329402656602
C        11.84632950653427   -8.48835579102986    0.08347565715718
O        12.14536198430103   -9.01528464611670   -1.11272707275579
O        12.49232335880403   -8.87396815197289    1.03786355608434
C        11.75397748988228   -8.45157353994567   -2.36304970855664
H        10.92010984344322   -9.02333758362770   -2.77434553857685
H        12.62079539779271   -8.56272003200023   -3.01540372071429
H        11.49022296224290   -7.39765838896386   -2.26900258148064
H         9.42137074545547   -8.11913825288900   -1.29612547363050
H         7.73579812416965   -6.45652269080969   -0.81474633351550
H        11.81139975059333   -6.67538121066892    1.94541293223610
H        10.05853104579952   -4.99094846907058    2.45353623429082
O         7.77451721751231   -2.92947896227548    5.12511897479777
O         6.08278959631271   -0.96118838009494    3.91879301533599
C         8.96951459340354   -3.54968023180927    5.20415181151076
C         9.47443235673914   -3.46226615418916    6.45944669361215
C         8.51929162727881   -2.73528044661676    7.21503903546930
C         7.50948793386010   -2.44049021350113    6.35676144756681
H         8.58565353296992   -2.47546089456287    8.25198989297100
H         6.58459711485759   -1.91532489301358    6.48301622845728
H         9.31556660012713   -4.00290915230292    4.30198491886216
H        10.40345380639258   -3.85927201231072    6.81589708969027
C         6.61794665438268    0.22703780061561    4.27960195533606
C         5.66454038164563    1.19458642747838    4.29005492603308
C         4.45561304909408    0.55495362502430    3.90716644588069
C         4.76737442198910   -0.74790725320944    3.70197679196189
H         3.49313906281563    1.01838927485833    3.80674453282216
H         4.19423381889367   -1.59740901621811    3.39475618079058
H         7.66517953726950    0.24125502547043    4.51056765937736
H         5.79502700354217    2.22945830161504    4.53488800324871
57
 energy: -96.228167845912 gnorm: 0.014604749587 xtb: 6.4.1 (afa7bdf)
C         3.08367145147619   -1.35531368790581   -1.14545966775018
C         2.80967582425301   -2.15983631272290   -2.24643650317037
C         3.50003087113293   -3.35174526067444   -2.41178443764739
C         4.46463641616762   -3.75340745779952   -1.50976047167094
C         4.76199199853820   -2.94510761339736   -0.41138337293171
C         4.06069831856591   -1.75956119743409   -0.23956825244157
H         4.28108964473333   -1.13670357294064    0.61347296520000
H         2.06564891255078   -1.87986029828777   -2.97420603066354
H         3.27151273475241   -3.97309043539889   -3.26505097520796
H         4.96219481310000   -4.69893341593503   -1.65167482161142
C         5.79175338518395   -3.27328500562593    0.61493372714378
O         2.46675445647504   -0.17696283034575   -0.86085159920051
C         1.47546036526534    0.29546210663397   -1.74753086680960
H         1.88886226118853    0.47149931390379   -2.74566168222054
H         1.12969682053860    1.23750371446654   -1.32603397018130
H         0.63643280889083   -0.40414432926626   -1.81406143758483
C         6.81315676000160   -4.18076834440650    0.29135845386300
O         5.69555814837001   -2.70957961653548    1.73428979989697
C         7.80371090653676   -4.53294310882148    1.20362663175095
H         6.84187481133852   -4.58359676030273   -0.70330092906707
O         7.91357557693223   -4.01408730331150    2.35155815957169
Li        6.85506080426037   -2.76323265060973    3.13621341955332
C         8.81183117101260   -5.56624077215054    0.82406241797390
C         8.62646950366821   -6.48839336399669   -0.20666215372537
C         9.98371087107849   -5.64130910794035    1.58065088366350
C        10.94656375261290   -6.58564633469952    1.30606175007297
C        10.77372323796884   -7.48743013153233    0.25030478065736
C         9.59214517567191   -7.43804764056183   -0.48957485298261
C        11.83439053770688   -8.51609016897442    0.08349419744522
O        12.16407790917045   -9.00775645303553   -1.11797073705519
O        12.44010402723450   -8.94381217926443    1.05009919983837
C        11.76169481494640   -8.42943119274411   -2.35453796059027
H        10.92029480233909   -8.98874634801474   -2.76718104708347
H        12.61979513794494   -8.53508565057684   -3.01991180492327
H        11.50339220355608   -7.37600621869579   -2.24464239490466
H         9.39303888392495   -8.16357556004862   -1.26415305752381
H         7.71596940824488   -6.49088983657357   -0.78595313522388
H        11.84583331780468   -6.65078918711208    1.90055630321944
H        10.11370060126876   -4.93926164966920    2.39165400253074
O         7.75999376618755   -2.93677537529602    5.12918221158153