! Job execution by suborca V 5.02 !
Job started from clu.thch.uni-bonn.de, running /software/cluster/orca_5_0_2_linux_x86-64_openmpi411/orca from /software/cluster/orca_5_0_2_linux_x86-64_openmpi411 on boar229 in /tmp1/rothe/Aldehyd_freqopt__GHSbNW
Going to copy the following really necessary files:  

                                 *****************
                                 * O   R   C   A *
                                 *****************

                                            #,                                       
                                            ###                                      
                                            ####                                     
                                            #####                                    
                                            ######                                   
                                           ########,                                 
                                     ,,################,,,,,                         
                               ,,#################################,,                 
                          ,,##########################################,,             
                       ,#########################################, ''#####,          
                    ,#############################################,,   '####,        
                  ,##################################################,,,,####,       
                ,###########''''           ''''###############################       
              ,#####''   ,,,,##########,,,,          '''####'''          '####       
            ,##' ,,,,###########################,,,                        '##       
           ' ,,###''''                  '''############,,,                           
         ,,##''                                '''############,,,,        ,,,,,,###''
      ,#''                                            '''#######################'''  
     '                                                          ''''####''''         
             ,#######,   #######,   ,#######,      ##                                
            ,#'     '#,  ##    ##  ,#'     '#,    #''#        ######   ,####,        
            ##       ##  ##   ,#'  ##            #'  '#       #        #'  '#        
            ##       ##  #######   ##           ,######,      #####,   #    #        
            '#,     ,#'  ##    ##  '#,     ,#' ,#      #,         ##   #,  ,#        
             '#######'   ##     ##  '#######'  #'      '#     #####' # '####'        



                  #######################################################
                  #                        -***-                        #
                  #          Department of theory and spectroscopy      #
                  #    Directorship and core code : Frank Neese         #
                  #        Max Planck Institute fuer Kohlenforschung    #
                  #                Kaiser Wilhelm Platz 1               #
                  #                 D-45470 Muelheim/Ruhr               #
                  #                      Germany                        #
                  #                                                     #
                  #                  All rights reserved                #
                  #                        -***-                        #
                  #######################################################


                         Program Version 5.0.2 -  RELEASE  -


 With contributions from (in alphabetic order):
   Daniel Aravena         : Magnetic Suceptibility
   Michael Atanasov       : Ab Initio Ligand Field Theory (pilot matlab implementation)
   Alexander A. Auer      : GIAO ZORA, VPT2 properties, NMR spectrum
   Ute Becker             : Parallelization
   Giovanni Bistoni       : ED, misc. LED, open-shell LED, HFLD
   Martin Brehm           : Molecular dynamics
   Dmytro Bykov           : SCF Hessian
   Vijay G. Chilkuri      : MRCI spin determinant printing, contributions to CSF-ICE
   Dipayan Datta          : RHF DLPNO-CCSD density
   Achintya Kumar Dutta   : EOM-CC, STEOM-CC
   Dmitry Ganyushin       : Spin-Orbit,Spin-Spin,Magnetic field MRCI
   Miquel Garcia          : C-PCM and meta-GGA Hessian, CC/C-PCM, Gaussian charge scheme
   Yang Guo               : DLPNO-NEVPT2, F12-NEVPT2, CIM, IAO-localization
   Andreas Hansen         : Spin unrestricted coupled pair/coupled cluster methods
   Benjamin Helmich-Paris : MC-RPA, TRAH-SCF, COSX integrals
   Lee Huntington         : MR-EOM, pCC
   Robert Izsak           : Overlap fitted RIJCOSX, COSX-SCS-MP3, EOM
   Marcus Kettner         : VPT2
   Christian Kollmar      : KDIIS, OOCD, Brueckner-CCSD(T), CCSD density, CASPT2, CASPT2-K
   Simone Kossmann        : Meta GGA functionals, TD-DFT gradient, OOMP2, MP2 Hessian
   Martin Krupicka        : Initial AUTO-CI
   Lucas Lang             : DCDCAS
   Marvin Lechner         : AUTO-CI (C++ implementation), FIC-MRCC
   Dagmar Lenk            : GEPOL surface, SMD
   Dimitrios Liakos       : Extrapolation schemes; Compound Job, initial MDCI parallelization
   Dimitrios Manganas     : Further ROCIS development; embedding schemes
   Dimitrios Pantazis     : SARC Basis sets
   Anastasios Papadopoulos: AUTO-CI, single reference methods and gradients
   Taras Petrenko         : DFT Hessian,TD-DFT gradient, ASA, ECA, R-Raman, ABS, FL, XAS/XES, NRVS
   Peter Pinski           : DLPNO-MP2, DLPNO-MP2 Gradient
   Christoph Reimann      : Effective Core Potentials
   Marius Retegan         : Local ZFS, SOC
   Christoph Riplinger    : Optimizer, TS searches, QM/MM, DLPNO-CCSD(T), (RO)-DLPNO pert. Triples
   Tobias Risthaus        : Range-separated hybrids, TD-DFT gradient, RPA, STAB
   Michael Roemelt        : Original ROCIS implementation
   Masaaki Saitow         : Open-shell DLPNO-CCSD energy and density
   Barbara Sandhoefer     : DKH picture change effects
   Avijit Sen             : IP-ROCIS
   Kantharuban Sivalingam : CASSCF convergence, NEVPT2, FIC-MRCI
   Bernardo de Souza      : ESD, SOC TD-DFT
   Georgi Stoychev        : AutoAux, RI-MP2 NMR, DLPNO-MP2 response
   Willem Van den Heuvel  : Paramagnetic NMR
   Boris Wezisla          : Elementary symmetry handling
   Frank Wennmohs         : Technical directorship


 We gratefully acknowledge several colleagues who have allowed us to
 interface, adapt or use parts of their codes:
   Stefan Grimme, W. Hujo, H. Kruse, P. Pracht,  : VdW corrections, initial TS optimization,
                  C. Bannwarth, S. Ehlert          DFT functionals, gCP, sTDA/sTD-DF
   Ed Valeev, F. Pavosevic, A. Kumar             : LibInt (2-el integral package), F12 methods
   Garnet Chan, S. Sharma, J. Yang, R. Olivares  : DMRG
   Ulf Ekstrom                                   : XCFun DFT Library
   Mihaly Kallay                                 : mrcc  (arbitrary order and MRCC methods)
   Jiri Pittner, Ondrej Demel                    : Mk-CCSD
   Frank Weinhold                                : gennbo (NPA and NBO analysis)
   Christopher J. Cramer and Donald G. Truhlar   : smd solvation model
   Lars Goerigk                                  : TD-DFT with DH, B97 family of functionals
   V. Asgeirsson, H. Jonsson                     : NEB implementation
   FAccTs GmbH                                   : IRC, NEB, NEB-TS, DLPNO-Multilevel, CI-OPT
                                                   MM, QMMM, 2- and 3-layer-ONIOM, Crystal-QMMM,
                                                   LR-CPCM, SF, NACMEs, symmetry and pop. for TD-DFT,
                                                   nearIR, NL-DFT gradient (VV10), updates on ESD,
                                                   ML-optimized integration grids
   S Lehtola, MJT Oliveira, MAL Marques          : LibXC Library
   Liviu Ungur et al                             : ANISO software


 Your calculation uses the libint2 library for the computation of 2-el integrals
 For citations please refer to: http://libint.valeyev.net

 Your ORCA version has been built with support for libXC version: 5.1.0
 For citations please refer to: https://tddft.org/programs/libxc/

 This ORCA versions uses:
   CBLAS   interface :  Fast vector & matrix operations
   LAPACKE interface :  Fast linear algebra routines
   SCALAPACK package :  Parallel linear algebra routines
   Shared memory     :  Shared parallel matrices
   BLAS/LAPACK       :  OpenBLAS 0.3.15  USE64BITINT DYNAMIC_ARCH NO_AFFINITY Barcelona SINGLE_THREADED
        Core in use  :  Barcelona
   Copyright (c) 2011-2014, The OpenBLAS Project


Your calculation utilizes the atom-pairwise dispersion correction
with the Becke-Johnson damping scheme (D3BJ)
Cite in your paper:
S.Grimme, S.Ehrlich, L.Goerigk, J Comput Chem, (2011), 32, 1456–1465 
S.Grimme, J.Antony, S.Ehrlich and H.Krieg, J.Chem.Phys., 132, (2010), 154104 
   

================================================================================

----- Orbital basis set information -----
Your calculation utilizes the basis: def2-TZVP
   F. Weigend and R. Ahlrichs, Phys. Chem. Chem. Phys. 7, 3297 (2005).

----- AuxJ basis set information -----
Your calculation utilizes the auxiliary basis: def2/J
   F. Weigend, Phys. Chem. Chem. Phys. 8, 1057 (2006).

================================================================================
                                        WARNINGS
                       Please study these warnings very carefully!
================================================================================


WARNING: Geometry Optimization
  ===> : Switching off AutoStart
         For restart on a previous wavefunction, please use MOREAD

INFO   : the flag for use of the SHARK integral package has been found!

================================================================================
                                       INPUT FILE
================================================================================
NAME = Aldehyd_freqopt.inp
|  1> ! TPSS D3BJ def2-TZVP RI def2/J CPCM(THF)
|  2> ! Opt numfreq Pal8
|  3> 
|  4> * xyz 0 1
|  5> C        -2.65053088809814   -0.37637556645990    0.51839012630959
|  6> C        -2.26911470275150   -1.70062327148106    0.29858264846829
|  7> C        -0.94495937239237   -2.00481384026082   -0.01792251089273
|  8> C        -0.01263734654152   -0.99138997063801   -0.11635776060713
|  9> C        -0.39085193067083    0.33557826645437    0.10007627120831
| 10> C        -1.71786614479268    0.63478949717502    0.42111625369737
| 11> H        -1.99067135096991    1.66589181665878    0.58728707700073
| 12> H        -0.66212854168963   -3.03128311651749   -0.18629503539515
| 13> H         1.01325035287807   -1.22051976000627   -0.36290399818558
| 14> C         0.59820940436621    1.41398353044459   -0.01307101208456
| 15> H         1.61930504506623    1.06502428494643   -0.25945877848321
| 16> O         0.36944119712716    2.59073012714222    0.13817123787033
| 17> H        -3.68082256211529   -0.16706824430873    0.76275272199669
| 18> C        -3.30736203586490   -2.75842776412496    0.40158873835877
| 19> O        -2.81061936485280   -3.98747831695468    0.25747395917713
| 20> C        -3.73700789863821   -5.06941264439183    0.33666219035764
| 21> H        -3.16023523850131   -5.96826579745684    0.13810154926425
| 22> H        -4.52888147826397   -4.94186767888497   -0.40335666631329
| 23> H        -4.18561381574535   -5.10748004358220    1.33092641429730
| 24> O        -4.48355404274924   -2.53661387665367    0.59265772215526
| 25> *
| 26> 
| 27>                          ****END OF INPUT****
================================================================================

                       *****************************
                       * Geometry Optimization Run *
                       *****************************

Geometry optimization settings:
Update method            Update   .... BFGS
Choice of coordinates    CoordSys .... Z-matrix Internals
Initial Hessian          InHess   .... Almoef's Model

Convergence Tolerances:
Energy Change            TolE     ....  5.0000e-06 Eh
Max. Gradient            TolMAXG  ....  3.0000e-04 Eh/bohr
RMS Gradient             TolRMSG  ....  1.0000e-04 Eh/bohr
Max. Displacement        TolMAXD  ....  4.0000e-03 bohr
RMS Displacement         TolRMSD  ....  2.0000e-03 bohr
Strict Convergence                ....  False
------------------------------------------------------------------------------
                        ORCA OPTIMIZATION COORDINATE SETUP
------------------------------------------------------------------------------

The optimization will be done in new redundant internal coordinates
Making redundant internal coordinates   ...  (new redundants) done
Evaluating the initial hessian          ...  (Almloef) done
Evaluating the coordinates              ...  done
Calculating the B-matrix                .... done
Calculating the G-matrix                .... done
Diagonalizing the G-matrix              .... done
Small eigenvalue found = 1.172e-02
The first mode is                       ....   34
The number of degrees of freedom        ....   54

    -----------------------------------------------------------------
                    Redundant Internal Coordinates


    -----------------------------------------------------------------
         Definition                    Initial Value    Approx d2E/dq
    -----------------------------------------------------------------
      1. B(C   1,C   0)                  1.3955         0.612295   
      2. B(C   2,C   1)                  1.3950         0.613369   
      3. B(C   3,C   2)                  1.3806         0.646847   
      4. B(C   4,C   3)                  1.3967         0.609635   
      5. B(C   5,C   0)                  1.3791         0.650441   
      6. B(C   5,C   4)                  1.3977         0.607374   
      7. B(H   6,C   5)                  1.0794         0.374333   
      8. B(H   7,C   2)                  1.0780         0.376395   
      9. B(H   8,C   3)                  1.0797         0.374000   
     10. B(C   9,C   4)                  1.4677         0.469731   
     11. B(H  10,C   9)                  1.1068         0.338486   
     12. B(O  11,C   9)                  1.2083         1.090931   
     13. B(H  12,C   0)                  1.0794         0.374451   
     14. B(C  13,C   1)                  1.4858         0.439482   
     15. B(O  14,C  13)                  1.3334         0.688808   
     16. B(C  15,O  14)                  1.4266         0.489283   
     17. B(H  16,C  15)                  1.0863         0.365039   
     18. B(H  17,C  15)                  1.0913         0.358370   
     19. B(H  18,C  15)                  1.0914         0.358190   
     20. B(O  19,C  13)                  1.2121         1.075812   
     21. A(C   5,C   0,H  12)          121.2883         0.358158   
     22. A(C   1,C   0,C   5)          119.9891         0.436844   
     23. A(C   1,C   0,H  12)          118.7225         0.354501   
     24. A(C   0,C   1,C   2)          120.1383         0.432254   
     25. A(C   0,C   1,C  13)          118.2741         0.407307   
     26. A(C   2,C   1,C  13)          121.5860         0.407434   
     27. A(C   3,C   2,H   7)          120.7093         0.358136   
     28. A(C   1,C   2,H   7)          119.4804         0.354918   
     29. A(C   1,C   2,C   3)          119.8100         0.436546   
     30. A(C   4,C   3,H   8)          119.6243         0.354167   
     31. A(C   2,C   3,H   8)          120.1436         0.357747   
     32. A(C   2,C   3,C   4)          120.2320         0.436066   
     33. A(C   5,C   4,C   9)          120.0156         0.411550   
     34. A(C   3,C   4,C   9)          120.2429         0.411821   
     35. A(C   3,C   4,C   5)          119.7411         0.431155   
     36. A(C   0,C   5,H   6)          121.2393         0.358139   
     37. A(C   0,C   5,C   4)          120.0889         0.436209   
     38. A(C   4,C   5,H   6)          118.6718         0.353998   
     39. A(C   4,C   9,H  10)          114.0291         0.333392   
     40. A(H  10,C   9,O  11)          120.6354         0.382309   
     41. A(C   4,C   9,O  11)          125.3355         0.454237   
     42. A(C   1,C  13,O  19)          123.9688         0.447641   
     43. A(O  14,C  13,O  19)          123.1756         0.482771   
     44. A(C   1,C  13,O  14)          112.8553         0.413215   
     45. A(C  13,O  14,C  15)          116.8165         0.418455   
     46. A(H  17,C  15,H  18)          108.8781         0.290377   
     47. A(H  16,C  15,H  18)          110.8477         0.291219   
     48. A(O  14,C  15,H  18)          110.1166         0.336781   
     49. A(H  16,C  15,H  17)          110.9792         0.291242   
     50. A(O  14,C  15,H  17)          110.1774         0.336809   
     51. A(O  14,C  15,H  16)          105.8200         0.337846   
     52. D(C  13,C   1,C   0,H  12)      0.4948         0.025904   
     53. D(C  13,C   1,C   0,C   5)   -179.4760         0.025904   
     54. D(C   2,C   1,C   0,H  12)   -179.9443         0.025904   
     55. D(C   2,C   1,C   0,C   5)      0.0848         0.025904   
     56. D(C   3,C   2,C   1,C   0)     -0.1530         0.026000   
     57. D(C   3,C   2,C   1,C  13)    179.3930         0.026000   
     58. D(H   7,C   2,C   1,C  13)     -0.4095         0.026000   
     59. D(H   7,C   2,C   1,C   0)   -179.9555         0.026000   
     60. D(H   8,C   3,C   2,H   7)     -0.0808         0.029113   
     61. D(H   8,C   3,C   2,C   1)   -179.8808         0.029113   
     62. D(C   4,C   3,C   2,H   7)    179.8164         0.029113   
     63. D(C   4,C   3,C   2,C   1)      0.0164         0.029113   
     64. D(C   9,C   4,C   3,C   2)   -179.6019         0.025666   
     65. D(C   5,C   4,C   3,H   8)   -179.9155         0.025666   
     66. D(C   5,C   4,C   3,C   2)      0.1868         0.025666   
     67. D(C   9,C   4,C   3,H   8)      0.2958         0.025666   
     68. D(H   6,C   5,C   4,C   9)     -0.3647         0.025466   
     69. D(C   0,C   5,C   4,C   9)    179.5341         0.025466   
     70. D(C   0,C   5,C   4,C   3)     -0.2551         0.025466   
     71. D(H   6,C   5,C   0,H  12)      0.0456         0.029460   
     72. D(H   6,C   5,C   0,C   1)   -179.9844         0.029460   
     73. D(H   6,C   5,C   4,C   3)    179.8462         0.025466   
     74. D(C   4,C   5,C   0,H  12)   -179.8506         0.029460   
     75. D(C   4,C   5,C   0,C   1)      0.1195         0.029460   
     76. D(O  11,C   9,C   4,C   5)     -0.7434         0.015025   
     77. D(O  11,C   9,C   4,C   3)    179.0447         0.015025   
     78. D(H  10,C   9,C   4,C   5)    179.3305         0.015025   
     79. D(H  10,C   9,C   4,C   3)     -0.8814         0.015025   
     80. D(O  19,C  13,C   1,C   0)      4.2502         0.013180   
     81. D(O  14,C  13,C   1,C   2)      4.5138         0.013180   
     82. D(O  14,C  13,C   1,C   0)   -175.9321         0.013180   
     83. D(O  19,C  13,C   1,C   2)   -175.3040         0.013180   
     84. D(C  15,O  14,C  13,O  19)      0.0492         0.035422   
     85. D(C  15,O  14,C  13,C   1)   -179.7703         0.035422   
     86. D(H  18,C  15,O  14,C  13)    -63.4494         0.018903   
     87. D(H  17,C  15,O  14,C  13)     56.6635         0.018903   
     88. D(H  16,C  15,O  14,C  13)    176.7018         0.018903   
    -----------------------------------------------------------------

Number of atoms                         .... 20
Number of degrees of freedom            .... 88

         *************************************************************
         *                GEOMETRY OPTIMIZATION CYCLE   1            *
         *************************************************************
---------------------------------
CARTESIAN COORDINATES (ANGSTROEM)
---------------------------------
  C     -2.650531   -0.376376    0.518390
  C     -2.269115   -1.700623    0.298583
  C     -0.944959   -2.004814   -0.017923
  C     -0.012637   -0.991390   -0.116358
  C     -0.390852    0.335578    0.100076
  C     -1.717866    0.634789    0.421116
  H     -1.990671    1.665892    0.587287
  H     -0.662129   -3.031283   -0.186295
  H      1.013250   -1.220520   -0.362904
  C      0.598209    1.413984   -0.013071
  H      1.619305    1.065024   -0.259459
  O      0.369441    2.590730    0.138171
  H     -3.680823   -0.167068    0.762753
  C     -3.307362   -2.758428    0.401589
  O     -2.810619   -3.987478    0.257474
  C     -3.737008   -5.069413    0.336662
  H     -3.160235   -5.968266    0.138102
  H     -4.528881   -4.941868   -0.403357
  H     -4.185614   -5.107480    1.330926
  O     -4.483554   -2.536614    0.592658

----------------------------
CARTESIAN COORDINATES (A.U.)
----------------------------
  NO LB      ZA    FRAG     MASS         X           Y           Z
   0 C     6.0000    0    12.011   -5.008777   -0.711247    0.979615
   1 C     6.0000    0    12.011   -4.288005   -3.213712    0.564239
   2 C     6.0000    0    12.011   -1.785714   -3.788549   -0.033869
   3 C     6.0000    0    12.011   -0.023881   -1.873456   -0.219884
   4 C     6.0000    0    12.011   -0.738603    0.634151    0.189117
   5 C     6.0000    0    12.011   -3.246297    1.199578    0.795794
   6 H     1.0000    0     1.008   -3.761824    3.148079    1.109812
   7 H     1.0000    0     1.008   -1.251242   -5.728295   -0.352047
   8 H     1.0000    0     1.008    1.914766   -2.306448   -0.685789
   9 C     6.0000    0    12.011    1.130452    2.672042   -0.024701
  10 H     1.0000    0     1.008    3.060043    2.012604   -0.490306
  11 O     8.0000    0    15.999    0.698143    4.895770    0.261106
  12 H     1.0000    0     1.008   -6.955747   -0.315713    1.441394
  13 C     6.0000    0    12.011   -6.250008   -5.212673    0.758893
  14 O     8.0000    0    15.999   -5.311301   -7.535242    0.486555
  15 C     6.0000    0    12.011   -7.061921   -9.579802    0.636199
  16 H     1.0000    0     1.008   -5.971979  -11.278388    0.260974
  17 H     1.0000    0     1.008   -8.558346   -9.338777   -0.762234
  18 H     1.0000    0     1.008   -7.909664   -9.651739    2.515086
  19 O     8.0000    0    15.999   -8.472689   -4.793506    1.119961

--------------------------------
INTERNAL COORDINATES (ANGSTROEM)
--------------------------------
 C      0   0   0     0.000000000000     0.00000000     0.00000000
 C      1   0   0     1.395501923328     0.00000000     0.00000000
 C      2   1   0     1.395025002269   120.13834854     0.00000000
 C      3   2   1     1.380558509370   119.80999520   359.84701261
 C      4   3   2     1.396687031524   120.23203414     0.00000000
 C      1   2   3     1.379050584864   119.98914366     0.08484246
 H      6   1   2     1.079447736706   121.23929146   180.01562271
 H      3   2   1     1.077952578225   119.48042612   180.04452479
 H      4   3   2     1.079690270152   120.14360782   180.11921953
 C      5   4   3     1.467652051947   120.24294010   180.39811429
 H     10   5   4     1.106849490177   114.02909050   359.11859366
 O     10   5   4     1.208280457367   125.33547770   179.04468675
 H      1   2   3     1.079362574312   118.72253212   180.05567670
 C      2   1   3     1.485771894986   118.27414194   180.43914514
 O     14   2   1     1.333449516177   112.85529183   184.06794701
 C     15  14   2     1.426551218980   116.81648465   180.22971559
 H     16  15  14     1.086291867063   105.82003904   176.70182419
 H     16  15  14     1.091310859730   110.17735736    56.66347841
 H     16  15  14     1.091447544663   110.11660301   296.55055062
 O     14   2   1     1.212079367988   123.96884776     4.25016303

---------------------------
INTERNAL COORDINATES (A.U.)
---------------------------
 C      0   0   0     0.000000000000     0.00000000     0.00000000
 C      1   0   0     2.637116454451     0.00000000     0.00000000
 C      2   1   0     2.636215204261   120.13834854     0.00000000
 C      3   2   1     2.608877494564   119.80999520   359.84701261
 C      4   3   2     2.639355984380   120.23203414     0.00000000
 C      1   2   3     2.606027930217   119.98914366     0.08484246
 H      6   1   2     2.039860598255   121.23929146   180.01562271
 H      3   2   1     2.037035158200   119.48042612   180.04452479
 H      4   3   2     2.040318920046   120.14360782   180.11921953
 C      5   4   3     2.773460438067   120.24294010   180.39811429
 H     10   5   4     2.091642407906   114.02909050   359.11859366
 O     10   5   4     2.283319157392   125.33547770   179.04468675
 H      1   2   3     2.039699664654   118.72253212   180.05567670
 C      2   1   3     2.807701979000   118.27414194   180.43914514
 O     14   2   1     2.519854398985   112.85529183   184.06794701
 C     15  14   2     2.695791119884   116.81648465   180.22971559
 H     16  15  14     2.052794130256   105.82003904   176.70182419
 H     16  15  14     2.062278651863   110.17735736    56.66347841
 H     16  15  14     2.062536948954   110.11660301   296.55055062
 O     14   2   1     2.290498058074   123.96884776     4.25016303

---------------------
BASIS SET INFORMATION
---------------------
There are 3 groups of distinct atoms

 Group   1 Type C   : 11s6p2d1f contracted to 5s3p2d1f pattern {62111/411/11/1}
 Group   2 Type H   : 5s1p contracted to 3s1p pattern {311/1}
 Group   3 Type O   : 11s6p2d1f contracted to 5s3p2d1f pattern {62111/411/11/1}

Atom   0C    basis set group =>   1
Atom   1C    basis set group =>   1
Atom   2C    basis set group =>   1
Atom   3C    basis set group =>   1
Atom   4C    basis set group =>   1
Atom   5C    basis set group =>   1
Atom   6H    basis set group =>   2
Atom   7H    basis set group =>   2
Atom   8H    basis set group =>   2
Atom   9C    basis set group =>   1
Atom  10H    basis set group =>   2
Atom  11O    basis set group =>   3
Atom  12H    basis set group =>   2
Atom  13C    basis set group =>   1
Atom  14O    basis set group =>   3
Atom  15C    basis set group =>   1
Atom  16H    basis set group =>   2
Atom  17H    basis set group =>   2
Atom  18H    basis set group =>   2
Atom  19O    basis set group =>   3
---------------------------------
AUXILIARY/J BASIS SET INFORMATION
---------------------------------
There are 3 groups of distinct atoms

 Group   1 Type C   : 12s5p4d2f1g contracted to 6s4p3d1f1g pattern {711111/2111/211/2/1}
 Group   2 Type H   : 5s2p1d contracted to 3s1p1d pattern {311/2/1}
 Group   3 Type O   : 12s5p4d2f1g contracted to 6s4p3d1f1g pattern {711111/2111/211/2/1}

Atom   0C    basis set group =>   1
Atom   1C    basis set group =>   1
Atom   2C    basis set group =>   1
Atom   3C    basis set group =>   1
Atom   4C    basis set group =>   1
Atom   5C    basis set group =>   1
Atom   6H    basis set group =>   2
Atom   7H    basis set group =>   2
Atom   8H    basis set group =>   2
Atom   9C    basis set group =>   1
Atom  10H    basis set group =>   2
Atom  11O    basis set group =>   3
Atom  12H    basis set group =>   2
Atom  13C    basis set group =>   1
Atom  14O    basis set group =>   3
Atom  15C    basis set group =>   1
Atom  16H    basis set group =>   2
Atom  17H    basis set group =>   2
Atom  18H    basis set group =>   2
Atom  19O    basis set group =>   3


           ************************************************************
           *        Program running with 8 parallel MPI-processes     *
           *              working on a common directory               *
           ************************************************************
------------------------------------------------------------------------------
                           ORCA GTO INTEGRAL CALCULATION
                           -- RI-GTO INTEGRALS CHOSEN --
------------------------------------------------------------------------------
------------------------------------------------------------------------------
                   ___                                                        
                  /   \      - P O W E R E D   B Y -                         
                 /     \                                                     
                 |  |  |   _    _      __       _____    __    __             
                 |  |  |  | |  | |    /  \     |  _  \  |  |  /  |          
                  \  \/   | |  | |   /    \    | | | |  |  | /  /          
                 / \  \   | |__| |  /  /\  \   | |_| |  |  |/  /          
                |  |  |   |  __  | /  /__\  \  |    /   |      \           
                |  |  |   | |  | | |   __   |  |    \   |  |\   \          
                \     /   | |  | | |  |  |  |  | |\  \  |  | \   \       
                 \___/    |_|  |_| |__|  |__|  |_| \__\ |__|  \__/        
                                                                              
                      - O R C A' S   B I G   F R I E N D -                    
                                      &                                       
                       - I N T E G R A L  F E E D E R -                       
                                                                              
 v1 FN, 2020, v2 2021                                                         
------------------------------------------------------------------------------


Reading SHARK input file Aldehyd_freqopt.SHARKINP.tmp ... ok
----------------------
SHARK INTEGRAL PACKAGE
----------------------

Number of atoms                             ...     20
Number of basis functions                   ...    420
Number of shells                            ...    164
Maximum angular momentum                    ...      3
Integral batch strategy                     ... SHARK/LIBINT Hybrid
RI-J (if used) integral strategy            ... SPLIT-RIJ (Revised 2003 algorithm where possible)
Printlevel                                  ...      1
Contraction scheme used                     ... SEGMENTED contraction
Coulomb Range Separation                    ... NOT USED
Exchange Range Separation                   ... NOT USED
Finite Nucleus Model                        ... NOT USED
Auxiliary Coulomb fitting basis             ... AVAILABLE
   # of basis functions in Aux-J            ...    676
   # of shells in Aux-J                     ...    220
   Maximum angular momentum in Aux-J        ...      4
Auxiliary J/K fitting basis                 ... NOT available
Auxiliary Correlation fitting basis         ... NOT available
Auxiliary 'external' fitting basis          ... NOT available
Integral threshold                          ...     2.500000e-11
Primitive cut-off                           ...     2.500000e-12
Primitive pair pre-selection threshold      ...     2.500000e-12

Calculating pre-screening integrals         ... done (  0.1 sec) Dimension = 164
Organizing shell pair data                  ... done (  0.2 sec)
Shell pair information
Total number of shell pairs                 ...     13530
Shell pairs after pre-screening             ...     10954
Total number of primitive shell pairs       ...     41904
Primitive shell pairs kept                  ...     24191
          la=0 lb=0:   2746 shell pairs
          la=1 lb=0:   3067 shell pairs
          la=1 lb=1:    871 shell pairs
          la=2 lb=0:   1613 shell pairs
          la=2 lb=1:    904 shell pairs
          la=2 lb=2:    249 shell pairs
          la=3 lb=0:    766 shell pairs
          la=3 lb=1:    445 shell pairs
          la=3 lb=2:    232 shell pairs
          la=3 lb=3:     61 shell pairs

Calculating one electron integrals          ... done (  0.0 sec)
Calculating RI/J V-Matrix + Cholesky decomp.... done (  0.0 sec)
Calculating Nuclear repulsion               ... done (  0.0 sec) ENN=    640.219870324160 Eh

SHARK setup successfully completed in   0.9 seconds

Maximum memory used throughout the entire GTOINT-calculation: 24.0 MB


           ************************************************************
           *        Program running with 8 parallel MPI-processes     *
           *              working on a common directory               *
           ************************************************************
-------------------------------------------------------------------------------
                                 ORCA SCF
-------------------------------------------------------------------------------

------------
SCF SETTINGS
------------
Hamiltonian:
 Density Functional     Method          .... DFT(GTOs)
 Exchange Functional    Exchange        .... TPSS
 Correlation Functional Correlation     .... TPSS
 LDA part of GGA corr.  LDAOpt          .... PW91-LDA
 Gradients option       PostSCFGGA      .... off
   Density functional embedding theory  .... OFF
   NL short-range parameter             ....  5.000000
 RI-approximation to the Coulomb term is turned on
   Number of AuxJ basis functions       .... 676


General Settings:
 Integral files         IntName         .... Aldehyd_freqopt
 Hartree-Fock type      HFTyp           .... RHF
 Total Charge           Charge          ....    0
 Multiplicity           Mult            ....    1
 Number of Electrons    NEL             ....   86
 Basis Dimension        Dim             ....  420
 Nuclear Repulsion      ENuc            ....    640.2198703242 Eh

Convergence Acceleration:
 DIIS                   CNVDIIS         .... on
   Start iteration      DIISMaxIt       ....    12
   Startup error        DIISStart       ....  0.200000
   # of expansion vecs  DIISMaxEq       ....     5
   Bias factor          DIISBfac        ....   1.050
   Max. coefficient     DIISMaxC        ....  10.000
 Trust-Rad. Augm. Hess. CNVTRAH         .... auto
   Auto Start mean grad. ratio tolernc. ....  1.125000
   Auto Start start iteration           ....    20
   Auto Start num. interpolation iter.  ....    10
   Max. Number of Micro iterations      ....    16
   Max. Number of Macro iterations      .... Maxiter - #DIIS iter
   Number of Davidson start vectors     ....     2
   Converg. threshold I  (grad. norm)   ....   1.000e-05
   Converg. threshold II (energy diff.) ....   1.000e-08
   Grad. Scal. Fac. for Micro threshold ....   0.100
   Minimum threshold for Micro iter.    ....   0.010
   NR start threshold (gradient norm)   ....   0.001
   Initial trust radius                 ....   0.400
   Minimum AH scaling param. (alpha)    ....   1.000
   Maximum AH scaling param. (alpha)    .... 1000.000
   Orbital update algorithm             .... Taylor
   White noise on init. David. guess    .... on
   Maximum white noise                  ....   0.010
   Quad. conv. algorithm                .... NR
 SOSCF                  CNVSOSCF        .... on
   Start iteration      SOSCFMaxIt      ....   150
   Startup grad/error   SOSCFStart      ....  0.003300
 Level Shifting         CNVShift        .... on
   Level shift para.    LevelShift      ....    0.2500
   Turn off err/grad.   ShiftErr        ....    0.0010
 Zerner damping         CNVZerner       .... off
 Static damping         CNVDamp         .... on
   Fraction old density DampFac         ....    0.7000
   Max. Damping (<1)    DampMax         ....    0.9800
   Min. Damping (>=0)   DampMin         ....    0.0000
   Turn off err/grad.   DampErr         ....    0.1000
 Fernandez-Rico         CNVRico         .... off

SCF Procedure:
 Maximum # iterations   MaxIter         ....   125
 SCF integral mode      SCFMode         .... Direct
   Integral package                     .... SHARK and LIBINT hybrid scheme
 Reset frequency        DirectResetFreq ....    20
 Integral Threshold     Thresh          ....  2.500e-11 Eh
 Primitive CutOff       TCut            ....  2.500e-12 Eh

Convergence Tolerance:
 Convergence Check Mode ConvCheckMode   .... Total+1el-Energy
 Convergence forced     ConvForced      .... 0
 Energy Change          TolE            ....  1.000e-08 Eh
 1-El. energy change                    ....  1.000e-05 Eh
 Orbital Gradient       TolG            ....  1.000e-05
 Orbital Rotation angle TolX            ....  1.000e-05
 DIIS Error             TolErr          ....  5.000e-07


Diagonalization of the overlap matrix:
Smallest eigenvalue                        ... 7.401e-06
Time for diagonalization                   ...    0.088 sec
Threshold for overlap eigenvalues          ... 1.000e-08
Number of eigenvalues below threshold      ... 0
Time for construction of square roots      ...    0.053 sec
Total time needed                          ...    0.143 sec

Time for model grid setup =    0.247 sec

------------------------------
INITIAL GUESS: MODEL POTENTIAL
------------------------------
Loading Hartree-Fock densities                     ... done
Calculating cut-offs                               ... done
Initializing the effective Hamiltonian             ... done
Setting up the integral package (SHARK)            ... done
Starting the Coulomb interaction                   ... done (   0.2 sec)
Reading the grid                                   ... done
Mapping shells                                     ... done
Starting the XC term evaluation                    ... done (   0.3 sec)
  promolecular density results
     # of electrons  =     85.992734195
     EX              =    -72.844003124
     EC              =     -2.877092686
     EX+EC           =    -75.721095810
Transforming the Hamiltonian                       ... done (   0.0 sec)
Diagonalizing the Hamiltonian                      ... done (   0.1 sec)
Back transforming the eigenvectors                 ... done (   0.0 sec)
Now organizing SCF variables                       ... done
                      ------------------
                      INITIAL GUESS DONE (   0.9 sec)
                      ------------------
-------------------
DFT GRID GENERATION
-------------------

General Integration Accuracy     IntAcc      ... 4.388
Radial Grid Type                 RadialGrid  ... OptM3 with GC (2021)
Angular Grid (max. ang.)         AngularGrid ... 4 (Lebedev-302)
Angular grid pruning method      GridPruning ... 4 (adaptive)
Weight generation scheme         WeightScheme... Becke
Basis function cutoff            BFCut       ... 1.0000e-11
Integration weight cutoff        WCut        ... 1.0000e-14
Angular grids for H and He will be reduced by one unit
Partially contracted basis set               ... off
Rotationally invariant grid construction     ... off

Total number of grid points                  ...    98044
Total number of batches                      ...     1541
Average number of points per batch           ...       63
Average number of grid points per atom       ...     4902
Time for grid setup =    1.060 sec


--------------------
CPCM SOLVATION MODEL
--------------------
CPCM parameters:
  Epsilon                                         ...       7.2500
  Refrac                                          ...       1.4070
  Rsolv                                           ...       1.3000
  Surface type                                    ... GAUSSIAN VDW
  Epsilon function type                           ...         CPCM
Radii:
 Radius for C  used is    3.8550 Bohr (=   2.0400 Ang.)
 Radius for H  used is    2.4944 Bohr (=   1.3200 Ang.)
 Radius for O  used is    3.4469 Bohr (=   1.8240 Ang.)
Calculating surface                               ...        done! (  0.0s)
GEPOL surface points                              ...         1134
GEPOL Volume                                      ...    1331.4164
GEPOL Surface-area                                ...     733.5355
Calculating surface distance matrix               ...        done! (  0.0s)
Performing Cholesky decomposition & store         ...        done! (  0.2s)
Overall time for CPCM initialization              ...                 0.2s
--------------
SCF ITERATIONS
--------------
ITER       Energy         Delta-E        Max-DP      RMS-DP      [F,P]     Damp
               ***  Starting incremental Fock matrix formation  ***
  0   -573.5048315901   0.000000000000 0.26340194  0.00171964  0.2707326 0.7000
  1   -573.6375168233  -0.132685233193 0.21731004  0.00133873  0.0897920 0.7000
                               ***Turning on DIIS***
  2   -573.6790357484  -0.041518925106 0.20113569  0.00168150  0.0260147 0.0000
  3   -573.7595118853  -0.080476136878 0.19822506  0.00115951  0.0374209 0.0000
  4   -573.7711879834  -0.011676098146 0.03518254  0.00026411  0.0283273 0.0000
                      *** Initiating the SOSCF procedure ***
                           *** Shutting down DIIS ***
                      *** Re-Reading the Fockian *** 
                      *** Removing any level shift *** 
ITER      Energy       Delta-E        Grad      Rot      Max-DP    RMS-DP
  5   -573.77347371  -0.0022857293  0.000697  0.000697  0.016752  0.000105
               *** Restarting incremental Fock matrix formation ***
  6   -573.77352379  -0.0000500803  0.000451  0.001920  0.006463  0.000077
  7   -573.77346563   0.0000581618  0.001483  0.001925  0.009612  0.000054
  8   -573.77353646  -0.0000708317  0.000111  0.000293  0.001291  0.000012
  9   -573.77353598   0.0000004876  0.000111  0.000252  0.001187  0.000008
 10   -573.77353714  -0.0000011652  0.000047  0.000152  0.000243  0.000003
 11   -573.77353694   0.0000001999  0.000084  0.000104  0.000185  0.000002
 12   -573.77353721  -0.0000002673  0.000012  0.000085  0.000465  0.000003
 13   -573.77353719   0.0000000176  0.000028  0.000068  0.000181  0.000001
 14   -573.77353721  -0.0000000233  0.000004  0.000019  0.000082  0.000001
 15   -573.77353721   0.0000000024  0.000008  0.000012  0.000042  0.000001
                  ***Gradient check signals convergence***
              ***Rediagonalizing the Fockian in SOSCF/NRSCF***

               *****************************************************
               *                     SUCCESS                       *
               *           SCF CONVERGED AFTER  16 CYCLES          *
               *****************************************************


----------------
TOTAL SCF ENERGY
----------------

Total Energy       :         -573.77353722 Eh          -15613.17171 eV

Components:
Nuclear Repulsion  :          640.21987032 Eh           17421.26835 eV
Electronic Energy  :        -1213.99340754 Eh          -33034.44006 eV
One Electron Energy:        -2049.52123310 Eh          -55770.30806 eV
Two Electron Energy:          835.52782556 Eh           22735.86800 eV
CPCM Dielectric    :           -0.01249498 Eh              -0.34001 eV

Virial components:
Potential Energy   :        -1145.44581751 Eh          -31169.16530 eV
Kinetic Energy     :          571.67228029 Eh           15555.99360 eV
Virial Ratio       :            2.00367563


DFT components:
N(Alpha)           :       43.000003136200 electrons
N(Beta)            :       43.000003136200 electrons
N(Total)           :       86.000006272400 electrons
E(X)               :      -74.953608104731 Eh       
E(C)               :       -2.888100424383 Eh       
E(XC)              :      -77.841708529114 Eh       
DFET-embed. en.    :        0.000000000000 Eh       
CPCM Solvation Model Properties:
Surface-charge          :           -0.02194371
Charge-correction       :           -0.00008640 Eh              -0.00235 eV
Free-energy (cav+disp)  :  This term is not implemented in the current solvation scheme

---------------
SCF CONVERGENCE
---------------

  Last Energy change         ...   -6.1769e-09  Tolerance :   1.0000e-08
  Last MAX-Density change    ...    1.0915e-04  Tolerance :   1.0000e-07
  Last RMS-Density change    ...    1.2488e-06  Tolerance :   5.0000e-09
  Last Orbital Gradient      ...    4.0355e-07  Tolerance :   1.0000e-05
  Last Orbital Rotation      ...    1.2174e-06  Tolerance :   1.0000e-05

             **** THE GBW FILE WAS UPDATED (Aldehyd_freqopt.gbw) ****
             **** DENSITY Aldehyd_freqopt.scfp WAS UPDATED ****
             **** ENERGY FILE WAS UPDATED (Aldehyd_freqopt.en.tmp) ****
             **** THE GBW FILE WAS UPDATED (Aldehyd_freqopt.gbw) ****
             **** DENSITY Aldehyd_freqopt.scfp WAS UPDATED ****
----------------
ORBITAL ENERGIES
----------------

  NO   OCC          E(Eh)            E(eV) 
   0   2.0000     -18.936786      -515.2961 
   1   2.0000     -18.888864      -513.9921 
   2   2.0000     -18.878251      -513.7033 
   3   2.0000     -10.115759      -275.2638 
   4   2.0000     -10.074464      -274.1401 
   5   2.0000     -10.039464      -273.1877 
   6   2.0000     -10.019894      -272.6552 
   7   2.0000     -10.010742      -272.4061 
   8   2.0000     -10.009772      -272.3798 
   9   2.0000     -10.007685      -272.3230 
  10   2.0000     -10.006567      -272.2925 
  11   2.0000     -10.006110      -272.2801 
  12   2.0000      -1.048970       -28.5439 
  13   2.0000      -0.988742       -26.9050 
  14   2.0000      -0.959710       -26.1150 
  15   2.0000      -0.823709       -22.4143 
  16   2.0000      -0.741623       -20.1806 
  17   2.0000      -0.714817       -19.4512 
  18   2.0000      -0.683167       -18.5899 
  19   2.0000      -0.621811       -16.9203 
  20   2.0000      -0.580195       -15.7879 
  21   2.0000      -0.545554       -14.8453 
  22   2.0000      -0.528168       -14.3722 
  23   2.0000      -0.501479       -13.6459 
  24   2.0000      -0.459148       -12.4941 
  25   2.0000      -0.447906       -12.1882 
  26   2.0000      -0.445691       -12.1279 
  27   2.0000      -0.424496       -11.5511 
  28   2.0000      -0.416879       -11.3438 
  29   2.0000      -0.399665       -10.8754 
  30   2.0000      -0.396501       -10.7893 
  31   2.0000      -0.388228       -10.5642 
  32   2.0000      -0.386552       -10.5186 
  33   2.0000      -0.372284       -10.1304 
  34   2.0000      -0.349386        -9.5073 
  35   2.0000      -0.337665        -9.1883 
  36   2.0000      -0.326977        -8.8975 
  37   2.0000      -0.316188        -8.6039 
  38   2.0000      -0.278027        -7.5655 
  39   2.0000      -0.254871        -6.9354 
  40   2.0000      -0.251879        -6.8540 
  41   2.0000      -0.249091        -6.7781 
  42   2.0000      -0.229257        -6.2384 
  43   0.0000      -0.115839        -3.1521 
  44   0.0000      -0.053394        -1.4529 
  45   0.0000      -0.042601        -1.1592 
  46   0.0000       0.027978         0.7613 
  47   0.0000       0.039979         1.0879 
  48   0.0000       0.056271         1.5312 
  49   0.0000       0.062959         1.7132 
  50   0.0000       0.071357         1.9417 
  51   0.0000       0.084465         2.2984 
  52   0.0000       0.091246         2.4829 
  53   0.0000       0.106250         2.8912 
  54   0.0000       0.108132         2.9424 
  55   0.0000       0.111300         3.0286 
  56   0.0000       0.122503         3.3335 
  57   0.0000       0.126173         3.4333 
  58   0.0000       0.147119         4.0033 
  59   0.0000       0.157669         4.2904 
  60   0.0000       0.169057         4.6003 
  61   0.0000       0.178598         4.8599 
  62   0.0000       0.192929         5.2499 
  63   0.0000       0.194285         5.2868 
  64   0.0000       0.205836         5.6011 
  65   0.0000       0.208626         5.6770 
  66   0.0000       0.216938         5.9032 
  67   0.0000       0.218096         5.9347 
  68   0.0000       0.222094         6.0435 
  69   0.0000       0.229159         6.2357 
  70   0.0000       0.240597         6.5470 
  71   0.0000       0.259946         7.0735 
  72   0.0000       0.261598         7.1184 
  73   0.0000       0.264649         7.2015 
  74   0.0000       0.281482         7.6595 
  75   0.0000       0.291299         7.9267 
  76   0.0000       0.296791         8.0761 
  77   0.0000       0.301934         8.2160 
  78   0.0000       0.314676         8.5628 
  79   0.0000       0.323665         8.8074 
  80   0.0000       0.329724         8.9722 
  81   0.0000       0.337842         9.1931 
  82   0.0000       0.338602         9.2138 
  83   0.0000       0.344750         9.3811 
  84   0.0000       0.366776         9.9805 
  85   0.0000       0.375806        10.2262 
  86   0.0000       0.378116        10.2891 
  87   0.0000       0.392917        10.6918 
  88   0.0000       0.405589        11.0366 
  89   0.0000       0.407929        11.1003 
  90   0.0000       0.412464        11.2237 
  91   0.0000       0.421237        11.4624 
  92   0.0000       0.427264        11.6265 
  93   0.0000       0.433075        11.7846 
  94   0.0000       0.439623        11.9627 
  95   0.0000       0.445852        12.1323 
  96   0.0000       0.464908        12.6508 
  97   0.0000       0.472316        12.8524 
  98   0.0000       0.480974        13.0880 
  99   0.0000       0.487166        13.2565 
 100   0.0000       0.489381        13.3167 
 101   0.0000       0.492903        13.4126 
 102   0.0000       0.500903        13.6303 
 103   0.0000       0.514404        13.9976 
 104   0.0000       0.526233        14.3195 
 105   0.0000       0.534926        14.5561 
 106   0.0000       0.552285        15.0284 
 107   0.0000       0.564291        15.3551 
 108   0.0000       0.573343        15.6014 
 109   0.0000       0.607038        16.5184 
 110   0.0000       0.619379        16.8542 
 111   0.0000       0.629187        17.1211 
 112   0.0000       0.634490        17.2654 
 113   0.0000       0.638804        17.3827 
 114   0.0000       0.652056        17.7434 
 115   0.0000       0.654822        17.8186 
 116   0.0000       0.669111        18.2074 
 117   0.0000       0.692507        18.8441 
 118   0.0000       0.700712        19.0673 
 119   0.0000       0.706785        19.2326 
 120   0.0000       0.719732        19.5849 
 121   0.0000       0.723569        19.6893 
 122   0.0000       0.744024        20.2459 
 123   0.0000       0.748450        20.3664 
 124   0.0000       0.752671        20.4812 
 125   0.0000       0.781483        21.2652 
 126   0.0000       0.784761        21.3544 
 127   0.0000       0.796344        21.6696 
 128   0.0000       0.802808        21.8455 
 129   0.0000       0.824908        22.4469 
 130   0.0000       0.831631        22.6298 
 131   0.0000       0.839799        22.8521 
 132   0.0000       0.860916        23.4267 
 133   0.0000       0.863219        23.4894 
 134   0.0000       0.870829        23.6965 
 135   0.0000       0.887184        24.1415 
 136   0.0000       0.896801        24.4032 
 137   0.0000       0.922546        25.1037 
 138   0.0000       0.932236        25.3674 
 139   0.0000       0.957940        26.0669 
 140   0.0000       0.962472        26.1902 
 141   0.0000       0.976376        26.5685 
 142   0.0000       0.997428        27.1414 
 143   0.0000       1.014312        27.6008 
 144   0.0000       1.017709        27.6933 
 145   0.0000       1.054044        28.6820 
 146   0.0000       1.056675        28.7536 
 147   0.0000       1.064619        28.9698 
 148   0.0000       1.094961        29.7954 
 149   0.0000       1.130879        30.7728 
 150   0.0000       1.147673        31.2298 
 151   0.0000       1.148513        31.2526 
 152   0.0000       1.178511        32.0689 
 153   0.0000       1.190170        32.3862 
 154   0.0000       1.219403        33.1816 
 155   0.0000       1.221785        33.2465 
 156   0.0000       1.242346        33.8060 
 157   0.0000       1.251702        34.0605 
 158   0.0000       1.266219        34.4556 
 159   0.0000       1.280949        34.8564 
 160   0.0000       1.309402        35.6306 
 161   0.0000       1.317840        35.8603 
 162   0.0000       1.323433        36.0125 
 163   0.0000       1.343664        36.5630 
 164   0.0000       1.359321        36.9890 
 165   0.0000       1.384597        37.6768 
 166   0.0000       1.410576        38.3837 
 167   0.0000       1.429235        38.8915 
 168   0.0000       1.447435        39.3867 
 169   0.0000       1.451031        39.4846 
 170   0.0000       1.453293        39.5461 
 171   0.0000       1.460086        39.7310 
 172   0.0000       1.476973        40.1905 
 173   0.0000       1.479438        40.2576 
 174   0.0000       1.494391        40.6644 
 175   0.0000       1.512196        41.1490 
 176   0.0000       1.516511        41.2664 
 177   0.0000       1.541225        41.9389 
 178   0.0000       1.554881        42.3105 
 179   0.0000       1.559416        42.4339 
 180   0.0000       1.562262        42.5113 
 181   0.0000       1.572295        42.7843 
 182   0.0000       1.583846        43.0986 
 183   0.0000       1.589072        43.2408 
 184   0.0000       1.622796        44.1585 
 185   0.0000       1.645886        44.7868 
 186   0.0000       1.650912        44.9236 
 187   0.0000       1.656270        45.0694 
 188   0.0000       1.674612        45.5685 
 189   0.0000       1.711598        46.5750 
 190   0.0000       1.722938        46.8835 
 191   0.0000       1.734794        47.2062 
 192   0.0000       1.750273        47.6273 
 193   0.0000       1.785813        48.5944 
 194   0.0000       1.806591        49.1598 
 195   0.0000       1.814001        49.3615 
 196   0.0000       1.833926        49.9037 
 197   0.0000       1.881626        51.2016 
 198   0.0000       1.885165        51.2980 
 199   0.0000       1.897409        51.6311 
 200   0.0000       1.918328        52.2004 
 201   0.0000       1.924040        52.3558 
 202   0.0000       1.938212        52.7414 
 203   0.0000       1.971832        53.6563 
 204   0.0000       1.973278        53.6956 
 205   0.0000       1.983788        53.9816 
 206   0.0000       1.988748        54.1166 
 207   0.0000       2.004260        54.5387 
 208   0.0000       2.020094        54.9696 
 209   0.0000       2.037823        55.4520 
 210   0.0000       2.059651        56.0460 
 211   0.0000       2.084473        56.7214 
 212   0.0000       2.110026        57.4167 
 213   0.0000       2.114098        57.5275 
 214   0.0000       2.123924        57.7949 
 215   0.0000       2.128441        57.9178 
 216   0.0000       2.145727        58.3882 
 217   0.0000       2.196543        59.7710 
 218   0.0000       2.216394        60.3111 
 219   0.0000       2.243961        61.0613 
 220   0.0000       2.250954        61.2516 
 221   0.0000       2.268811        61.7375 
 222   0.0000       2.286613        62.2219 
 223   0.0000       2.290036        62.3150 
 224   0.0000       2.302920        62.6656 
 225   0.0000       2.314308        62.9755 
 226   0.0000       2.320275        63.1379 
 227   0.0000       2.368052        64.4380 
 228   0.0000       2.379667        64.7540 
 229   0.0000       2.385122        64.9025 
 230   0.0000       2.391922        65.0875 
 231   0.0000       2.427425        66.0536 
 232   0.0000       2.454874        66.8005 
 233   0.0000       2.486555        67.6626 
 234   0.0000       2.515714        68.4561 
 235   0.0000       2.517784        68.5124 
 236   0.0000       2.531986        68.8989 
 237   0.0000       2.552490        69.4568 
 238   0.0000       2.579535        70.1927 
 239   0.0000       2.582574        70.2754 
 240   0.0000       2.587671        70.4141 
 241   0.0000       2.593721        70.5787 
 242   0.0000       2.619702        71.2857 
 243   0.0000       2.636857        71.7525 
 244   0.0000       2.645361        71.9839 
 245   0.0000       2.659401        72.3660 
 246   0.0000       2.671963        72.7078 
 247   0.0000       2.676633        72.8349 
 248   0.0000       2.685496        73.0761 
 249   0.0000       2.695777        73.3558 
 250   0.0000       2.712975        73.8238 
 251   0.0000       2.729169        74.2645 
 252   0.0000       2.753646        74.9305 
 253   0.0000       2.764013        75.2126 
 254   0.0000       2.767402        75.3048 
 255   0.0000       2.781140        75.6787 
 256   0.0000       2.787673        75.8564 
 257   0.0000       2.817702        76.6736 
 258   0.0000       2.830996        77.0353 
 259   0.0000       2.839380        77.2635 
 260   0.0000       2.855285        77.6962 
 261   0.0000       2.874659        78.2234 
 262   0.0000       2.876821        78.2823 
 263   0.0000       2.887319        78.5679 
 264   0.0000       2.903558        79.0098 
 265   0.0000       2.911226        79.2185 
 266   0.0000       2.922043        79.5128 
 267   0.0000       2.928417        79.6863 
 268   0.0000       2.941463        80.0413 
 269   0.0000       2.949922        80.2715 
 270   0.0000       2.976928        81.0063 
 271   0.0000       3.000875        81.6580 
 272   0.0000       3.022677        82.2512 
 273   0.0000       3.041654        82.7676 
 274   0.0000       3.042914        82.8019 
 275   0.0000       3.071396        83.5769 
 276   0.0000       3.094118        84.1952 
 277   0.0000       3.108968        84.5993 
 278   0.0000       3.114410        84.7474 
 279   0.0000       3.115586        84.7794 
 280   0.0000       3.126037        85.0638 
 281   0.0000       3.132199        85.2315 
 282   0.0000       3.149406        85.6997 
 283   0.0000       3.164035        86.0978 
 284   0.0000       3.183866        86.6374 
 285   0.0000       3.185555        86.6834 
 286   0.0000       3.202028        87.1316 
 287   0.0000       3.210690        87.3673 
 288   0.0000       3.218588        87.5822 
 289   0.0000       3.230592        87.9089 
 290   0.0000       3.246839        88.3510 
 291   0.0000       3.248717        88.4021 
 292   0.0000       3.273475        89.0758 
 293   0.0000       3.291216        89.5585 
 294   0.0000       3.296605        89.7052 
 295   0.0000       3.299676        89.7887 
 296   0.0000       3.327067        90.5341 
 297   0.0000       3.336206        90.7828 
 298   0.0000       3.338626        90.8486 
 299   0.0000       3.347113        91.0796 
 300   0.0000       3.359949        91.4289 
 301   0.0000       3.374359        91.8210 
 302   0.0000       3.379177        91.9521 
 303   0.0000       3.382563        92.0442 
 304   0.0000       3.401444        92.5580 
 305   0.0000       3.409874        92.7874 
 306   0.0000       3.434273        93.4513 
 307   0.0000       3.460140        94.1552 
 308   0.0000       3.462897        94.2302 
 309   0.0000       3.472167        94.4825 
 310   0.0000       3.488881        94.9373 
 311   0.0000       3.511938        95.5647 
 312   0.0000       3.516597        95.6915 
 313   0.0000       3.530908        96.0809 
 314   0.0000       3.542282        96.3904 
 315   0.0000       3.563192        96.9594 
 316   0.0000       3.572094        97.2016 
 317   0.0000       3.589100        97.6644 
 318   0.0000       3.620556        98.5203 
 319   0.0000       3.639385        99.0327 
 320   0.0000       3.669068        99.8404 
 321   0.0000       3.694531       100.5333 
 322   0.0000       3.737195       101.6943 
 323   0.0000       3.783088       102.9430 
 324   0.0000       3.809878       103.6720 
 325   0.0000       3.824021       104.0569 
 326   0.0000       3.844055       104.6021 
 327   0.0000       3.858502       104.9952 
 328   0.0000       3.869311       105.2893 
 329   0.0000       3.889660       105.8430 
 330   0.0000       3.955646       107.6386 
 331   0.0000       3.993042       108.6562 
 332   0.0000       4.034222       109.7768 
 333   0.0000       4.061816       110.5276 
 334   0.0000       4.085183       111.1635 
 335   0.0000       4.099598       111.5557 
 336   0.0000       4.136822       112.5687 
 337   0.0000       4.180222       113.7496 
 338   0.0000       4.188541       113.9760 
 339   0.0000       4.213717       114.6611 
 340   0.0000       4.226854       115.0186 
 341   0.0000       4.233216       115.1917 
 342   0.0000       4.247502       115.5804 
 343   0.0000       4.260831       115.9431 
 344   0.0000       4.274305       116.3097 
 345   0.0000       4.290469       116.7496 
 346   0.0000       4.298769       116.9754 
 347   0.0000       4.345892       118.2577 
 348   0.0000       4.362544       118.7109 
 349   0.0000       4.412397       120.0674 
 350   0.0000       4.433539       120.6427 
 351   0.0000       4.473542       121.7313 
 352   0.0000       4.488578       122.1404 
 353   0.0000       4.537471       123.4709 
 354   0.0000       4.618999       125.6893 
 355   0.0000       4.626818       125.9021 
 356   0.0000       4.663774       126.9077 
 357   0.0000       4.677656       127.2855 
 358   0.0000       4.682837       127.4265 
 359   0.0000       4.719818       128.4328 
 360   0.0000       4.830318       131.4396 
 361   0.0000       4.939279       134.4046 
 362   0.0000       4.943511       134.5198 
 363   0.0000       4.953415       134.7893 
 364   0.0000       5.015577       136.4808 
 365   0.0000       5.072937       138.0416 
 366   0.0000       5.147769       140.0779 
 367   0.0000       5.168553       140.6435 
 368   0.0000       5.179501       140.9414 
 369   0.0000       5.211098       141.8012 
 370   0.0000       5.236154       142.4830 
 371   0.0000       5.283012       143.7581 
 372   0.0000       5.289680       143.9395 
 373   0.0000       5.360603       145.8694 
 374   0.0000       5.419252       147.4654 
 375   0.0000       5.485469       149.2672 
 376   0.0000       5.505940       149.8243 
 377   0.0000       5.543671       150.8510 
 378   0.0000       5.553420       151.1162 
 379   0.0000       5.625667       153.0822 
 380   0.0000       5.659864       154.0127 
 381   0.0000       5.671285       154.3235 
 382   0.0000       5.716316       155.5489 
 383   0.0000       5.873965       159.8387 
 384   0.0000       5.971976       162.5057 
 385   0.0000       6.057718       164.8389 
 386   0.0000       6.124918       166.6675 
 387   0.0000       6.154948       167.4846 
 388   0.0000       6.252148       170.1296 
 389   0.0000       6.285549       171.0385 
 390   0.0000       6.298320       171.3860 
 391   0.0000       6.351711       172.8388 
 392   0.0000       6.383451       173.7025 
 393   0.0000       6.429892       174.9663 
 394   0.0000       6.494681       176.7292 
 395   0.0000       6.514736       177.2750 
 396   0.0000       6.606803       179.7803 
 397   0.0000       6.682521       181.8406 
 398   0.0000       6.730925       183.1578 
 399   0.0000       6.759088       183.9241 
 400   0.0000       6.858184       186.6207 
 401   0.0000       6.908854       187.9995 
 402   0.0000       6.969572       189.6517 
 403   0.0000       7.014110       190.8636 
 404   0.0000       7.026282       191.1949 
 405   0.0000       7.098833       193.1691 
 406   0.0000       7.325790       199.3449 
 407   0.0000       7.432939       202.2606 
 408   0.0000      22.104600       601.4967 
 409   0.0000      22.308341       607.0408 
 410   0.0000      22.649873       616.3344 
 411   0.0000      22.654356       616.4564 
 412   0.0000      22.723762       618.3450 
 413   0.0000      22.811115       620.7220 
 414   0.0000      22.965633       624.9267 
 415   0.0000      23.244490       632.5147 
 416   0.0000      23.476508       638.8282 
 417   0.0000      43.754237      1190.6133 
 418   0.0000      43.843290      1193.0366 
 419   0.0000      44.080393      1199.4885 

                    ********************************
                    * MULLIKEN POPULATION ANALYSIS *
                    ********************************

-----------------------
MULLIKEN ATOMIC CHARGES
-----------------------
   0 C :   -0.162980
   1 C :    0.141652
   2 C :   -0.182718
   3 C :   -0.151402
   4 C :    0.171215
   5 C :   -0.168100
   6 H :    0.130919
   7 H :    0.139439
   8 H :    0.137023
   9 C :    0.078575
  10 H :    0.093983
  11 O :   -0.309768
  12 H :    0.136588
  13 C :    0.320676
  14 O :   -0.216431
  15 C :   -0.234970
  16 H :    0.153762
  17 H :    0.146652
  18 H :    0.146800
  19 O :   -0.370914
Sum of atomic charges:   -0.0000000

--------------------------------
MULLIKEN REDUCED ORBITAL CHARGES
--------------------------------
  0 C s       :     3.256402  s :     3.256402
      pz      :     0.928155  p :     2.799540
      px      :     0.939326
      py      :     0.932059
      dz2     :     0.005060  d :     0.099183
      dxz     :     0.008564
      dyz     :     0.020111
      dx2y2   :     0.042703
      dxy     :     0.022745
      f0      :     0.001308  f :     0.007856
      f+1     :     0.000615
      f-1     :     0.000647
      f+2     :     0.000626
      f-2     :     0.001005
      f+3     :     0.001743
      f-3     :     0.001913
  1 C s       :     3.154822  s :     3.154822
      pz      :     0.938711  p :     2.564796
      px      :     0.808800
      py      :     0.817285
      dz2     :     0.010143  d :     0.128379
      dxz     :     0.019161
      dyz     :     0.019764
      dx2y2   :     0.026170
      dxy     :     0.053141
      f0      :     0.001390  f :     0.010351
      f+1     :     0.001023
      f-1     :     0.000789
      f+2     :     0.001191
      f-2     :     0.000785
      f+3     :     0.002471
      f-3     :     0.002702
  2 C s       :     3.273738  s :     3.273738
      pz      :     0.933134  p :     2.802144
      px      :     0.934308
      py      :     0.934702
      dz2     :     0.006152  d :     0.098945
      dxz     :     0.018826
      dyz     :     0.009002
      dx2y2   :     0.039678
      dxy     :     0.025288
      f0      :     0.001184  f :     0.007890
      f+1     :     0.000838
      f-1     :     0.000625
      f+2     :     0.000573
      f-2     :     0.001020
      f+3     :     0.001661
      f-3     :     0.001989
  3 C s       :     3.232948  s :     3.232948
      pz      :     0.933834  p :     2.812766
      px      :     0.952399
      py      :     0.926533
      dz2     :     0.005069  d :     0.097800
      dxz     :     0.008444
      dyz     :     0.021196
      dx2y2   :     0.042107
      dxy     :     0.020984
      f0      :     0.001305  f :     0.007888
      f+1     :     0.000611
      f-1     :     0.000641
      f+2     :     0.000626
      f-2     :     0.001024
      f+3     :     0.001728
      f-3     :     0.001953
  4 C s       :     3.075571  s :     3.075571
      pz      :     0.932901  p :     2.617984
      px      :     0.852193
      py      :     0.832890
      dz2     :     0.009002  d :     0.125087
      dxz     :     0.017123
      dyz     :     0.019747
      dx2y2   :     0.026824
      dxy     :     0.052392
      f0      :     0.001397  f :     0.010143
      f+1     :     0.000986
      f-1     :     0.000745
      f+2     :     0.001172
      f-2     :     0.000706
      f+3     :     0.002386
      f-3     :     0.002751
  5 C s       :     3.269302  s :     3.269302
      pz      :     0.920969  p :     2.793224
      px      :     0.937347
      py      :     0.934908
      dz2     :     0.005910  d :     0.097756
      dxz     :     0.018210
      dyz     :     0.008954
      dx2y2   :     0.040235
      dxy     :     0.024447
      f0      :     0.001159  f :     0.007818
      f+1     :     0.000832
      f-1     :     0.000615
      f+2     :     0.000574
      f-2     :     0.000997
      f+3     :     0.001644
      f-3     :     0.001997
  6 H s       :     0.848508  s :     0.848508
      pz      :     0.004468  p :     0.020573
      px      :     0.004276
      py      :     0.011830
  7 H s       :     0.839963  s :     0.839963
      pz      :     0.004550  p :     0.020599
      px      :     0.004247
      py      :     0.011802
  8 H s       :     0.842758  s :     0.842758
      pz      :     0.004849  p :     0.020220
      px      :     0.011269
      py      :     0.004102
  9 C s       :     3.249630  s :     3.249630
      pz      :     0.749212  p :     2.493005
      px      :     0.952225
      py      :     0.791568
      dz2     :     0.006867  d :     0.163734
      dxz     :     0.008715
      dyz     :     0.039419
      dx2y2   :     0.046863
      dxy     :     0.061871
      f0      :     0.001666  f :     0.015056
      f+1     :     0.000499
      f-1     :     0.001494
      f+2     :     0.001929
      f-2     :     0.001068
      f+3     :     0.004681
      f-3     :     0.003719
 10 H s       :     0.887584  s :     0.887584
      pz      :     0.003124  p :     0.018433
      px      :     0.011484
      py      :     0.003826
 11 O s       :     3.810546  s :     3.810546
      pz      :     1.336441  p :     4.468542
      px      :     1.759465
      py      :     1.372635
      dz2     :     0.002530  d :     0.028868
      dxz     :     0.000486
      dyz     :     0.010028
      dx2y2   :     0.007578
      dxy     :     0.008246
      f0      :     0.000157  f :     0.001813
      f+1     :     0.000018
      f-1     :     0.000170
      f+2     :     0.000410
      f-2     :     0.000078
      f+3     :     0.000513
      f-3     :     0.000466
 12 H s       :     0.842790  s :     0.842790
      pz      :     0.004709  p :     0.020622
      px      :     0.011871
      py      :     0.004043
 13 C s       :     3.083866  s :     3.083866
      pz      :     0.795415  p :     2.301272
      px      :     0.771508
      py      :     0.734349
      dz2     :     0.013120  d :     0.269594
      dxz     :     0.052655
      dyz     :     0.040738
      dx2y2   :     0.062505
      dxy     :     0.100576
      f0      :     0.002470  f :     0.024592
      f+1     :     0.001747
      f-1     :     0.001137
      f+2     :     0.003459
      f-2     :     0.001959
      f+3     :     0.005548
      f-3     :     0.008272
 14 O s       :     3.758880  s :     3.758880
      pz      :     1.672092  p :     4.415503
      px      :     1.555466
      py      :     1.187945
      dz2     :     0.004108  d :     0.039911
      dxz     :     0.004066
      dyz     :     0.007334
      dx2y2   :     0.010157
      dxy     :     0.014246
      f0      :     0.000284  f :     0.002137
      f+1     :     0.000160
      f-1     :     0.000369
      f+2     :     0.000145
      f-2     :     0.000233
      f+3     :     0.000482
      f-3     :     0.000464
 15 C s       :     3.245404  s :     3.245404
      pz      :     1.103656  p :     2.884771
      px      :     0.922509
      py      :     0.858606
      dz2     :     0.011013  d :     0.095947
      dxz     :     0.024968
      dyz     :     0.015460
      dx2y2   :     0.022898
      dxy     :     0.021607
      f0      :     0.001254  f :     0.008848
      f+1     :     0.001217
      f-1     :     0.000609
      f+2     :     0.000456
      f-2     :     0.001614
      f+3     :     0.001952
      f-3     :     0.001745
 16 H s       :     0.827177  s :     0.827177
      pz      :     0.004722  p :     0.019061
      px      :     0.005298
      py      :     0.009041
 17 H s       :     0.834587  s :     0.834587
      pz      :     0.007377  p :     0.018761
      px      :     0.007880
      py      :     0.003505
 18 H s       :     0.834516  s :     0.834516
      pz      :     0.009992  p :     0.018685
      px      :     0.005216
      py      :     0.003477
 19 O s       :     3.817986  s :     3.817986
      pz      :     1.417057  p :     4.522221
      px      :     1.348535
      py      :     1.756629
      dz2     :     0.002856  d :     0.028810
      dxz     :     0.009664
      dyz     :     0.000680
      dx2y2   :     0.007837
      dxy     :     0.007773
      f0      :     0.000171  f :     0.001897
      f+1     :     0.000224
      f-1     :     0.000029
      f+2     :     0.000393
      f-2     :     0.000101
      f+3     :     0.000464
      f-3     :     0.000516


                     *******************************
                     * LOEWDIN POPULATION ANALYSIS *
                     *******************************

----------------------
LOEWDIN ATOMIC CHARGES
----------------------
   0 C :   -0.070101
   1 C :   -0.105414
   2 C :   -0.078463
   3 C :   -0.075441
   4 C :   -0.148928
   5 C :   -0.066707
   6 H :    0.156057
   7 H :    0.156741
   8 H :    0.157251
   9 C :   -0.258695
  10 H :    0.123442
  11 O :    0.093275
  12 H :    0.157930
  13 C :   -0.457507
  14 O :    0.272281
  15 C :   -0.297842
  16 H :    0.118147
  17 H :    0.116312
  18 H :    0.116492
  19 O :    0.091169

-------------------------------
LOEWDIN REDUCED ORBITAL CHARGES
-------------------------------
  0 C s       :     2.757455  s :     2.757455
      pz      :     0.855537  p :     2.887364
      px      :     0.996861
      py      :     1.034966
      dz2     :     0.025250  d :     0.381581
      dxz     :     0.024140
      dyz     :     0.069993
      dx2y2   :     0.152948
      dxy     :     0.109252
      f0      :     0.003489  f :     0.043701
      f+1     :     0.002537
      f-1     :     0.004719
      f+2     :     0.003197
      f-2     :     0.006499
      f+3     :     0.011178
      f-3     :     0.012084
  1 C s       :     2.710702  s :     2.710702
      pz      :     0.851764  p :     2.842881
      px      :     0.996440
      py      :     0.994677
      dz2     :     0.042678  d :     0.495790
      dxz     :     0.065095
      dyz     :     0.065525
      dx2y2   :     0.137829
      dxy     :     0.184664
      f0      :     0.004117  f :     0.056041
      f+1     :     0.004632
      f-1     :     0.004308
      f+2     :     0.007531
      f-2     :     0.005375
      f+3     :     0.014181
      f-3     :     0.015896
  2 C s       :     2.758239  s :     2.758239
      pz      :     0.862405  p :     2.894747
      px      :     1.027733
      py      :     1.004609
      dz2     :     0.028886  d :     0.381818
      dxz     :     0.066240
      dyz     :     0.025553
      dx2y2   :     0.146136
      dxy     :     0.115003
      f0      :     0.003330  f :     0.043658
      f+1     :     0.004520
      f-1     :     0.003058
      f+2     :     0.003638
      f-2     :     0.006186
      f+3     :     0.010548
      f-3     :     0.012377
  3 C s       :     2.758494  s :     2.758494
      pz      :     0.856668  p :     2.888669
      px      :     0.992444
      py      :     1.039557
      dz2     :     0.025044  d :     0.384676
      dxz     :     0.024317
      dyz     :     0.072577
      dx2y2   :     0.152312
      dxy     :     0.110425
      f0      :     0.003456  f :     0.043603
      f+1     :     0.002537
      f-1     :     0.004669
      f+2     :     0.003152
      f-2     :     0.006562
      f+3     :     0.011070
      f-3     :     0.012157
  4 C s       :     2.715450  s :     2.715450
      pz      :     0.852670  p :     2.876116
      px      :     1.014893
      py      :     1.008553
      dz2     :     0.043231  d :     0.500945
      dxz     :     0.061772
      dyz     :     0.065457
      dx2y2   :     0.145868
      dxy     :     0.184617
      f0      :     0.004166  f :     0.056418
      f+1     :     0.004566
      f-1     :     0.004339
      f+2     :     0.007538
      f-2     :     0.005016
      f+3     :     0.014134
      f-3     :     0.016659
  5 C s       :     2.758470  s :     2.758470
      pz      :     0.850746  p :     2.882804
      px      :     1.028102
      py      :     1.003956
      dz2     :     0.028861  d :     0.381823
      dxz     :     0.065902
      dyz     :     0.025372
      dx2y2   :     0.148296
      dxy     :     0.113393
      f0      :     0.003280  f :     0.043610
      f+1     :     0.004468
      f-1     :     0.003043
      f+2     :     0.003612
      f-2     :     0.006161
      f+3     :     0.010501
      f-3     :     0.012545
  6 H s       :     0.783093  s :     0.783093
      pz      :     0.012959  p :     0.060850
      px      :     0.012596
      py      :     0.035295
  7 H s       :     0.782004  s :     0.782004
      pz      :     0.013317  p :     0.061255
      px      :     0.012686
      py      :     0.035252
  8 H s       :     0.782590  s :     0.782590
      pz      :     0.014077  p :     0.060159
      px      :     0.033943
      py      :     0.012140
  9 C s       :     2.816608  s :     2.816608
      pz      :     0.725943  p :     2.701494
      px      :     0.994019
      py      :     0.981532
      dz2     :     0.041195  d :     0.647673
      dxz     :     0.025045
      dyz     :     0.120957
      dx2y2   :     0.199293
      dxy     :     0.261182
      f0      :     0.006802  f :     0.092920
      f+1     :     0.002631
      f-1     :     0.010781
      f+2     :     0.011433
      f-2     :     0.007723
      f+3     :     0.029811
      f-3     :     0.023740
 10 H s       :     0.820769  s :     0.820769
      pz      :     0.009190  p :     0.055789
      px      :     0.035550
      py      :     0.011048
 11 O s       :     3.410241  s :     3.410241
      pz      :     1.264806  p :     4.420540
      px      :     1.639383
      py      :     1.516351
      dz2     :     0.007386  d :     0.069728
      dxz     :     0.000994
      dyz     :     0.013722
      dx2y2   :     0.023343
      dxy     :     0.024282
      f0      :     0.000438  f :     0.006216
      f+1     :     0.000142
      f-1     :     0.000847
      f+2     :     0.000765
      f-2     :     0.000207
      f+3     :     0.002012
      f-3     :     0.001805
 12 H s       :     0.781064  s :     0.781064
      pz      :     0.013746  p :     0.061005
      px      :     0.035506
      py      :     0.011753
 13 C s       :     2.738217  s :     2.738217
      pz      :     0.765969  p :     2.635720
      px      :     0.984683
      py      :     0.885068
      dz2     :     0.071946  d :     0.931385
      dxz     :     0.152778
      dyz     :     0.115224
      dx2y2   :     0.248404
      dxy     :     0.343034
      f0      :     0.008798  f :     0.152185
      f+1     :     0.011500
      f-1     :     0.008684
      f+2     :     0.024715
      f-2     :     0.012516
      f+3     :     0.034863
      f-3     :     0.051109
 14 O s       :     3.249641  s :     3.249641
      pz      :     1.544418  p :     4.358647
      px      :     1.537988
      py      :     1.276241
      dz2     :     0.011199  d :     0.112454
      dxz     :     0.008197
      dyz     :     0.019848
      dx2y2   :     0.034526
      dxy     :     0.038684
      f0      :     0.000604  f :     0.006977
      f+1     :     0.000280
      f-1     :     0.000910
      f+2     :     0.000261
      f-2     :     0.001099
      f+3     :     0.001666
      f-3     :     0.002157
 15 C s       :     2.865283  s :     2.865283
      pz      :     1.114308  p :     3.011833
      px      :     0.988233
      py      :     0.909292
      dz2     :     0.051836  d :     0.366143
      dxz     :     0.088346
      dyz     :     0.041777
      dx2y2   :     0.078821
      dxy     :     0.105363
      f0      :     0.006130  f :     0.054583
      f+1     :     0.004802
      f-1     :     0.005525
      f+2     :     0.003775
      f-2     :     0.009083
      f+3     :     0.012276
      f-3     :     0.012992
 16 H s       :     0.820625  s :     0.820625
      pz      :     0.014435  p :     0.061228
      px      :     0.018363
      py      :     0.028430
 17 H s       :     0.821681  s :     0.821681
      pz      :     0.025197  p :     0.062008
      px      :     0.026266
      py      :     0.010545
 18 H s       :     0.821758  s :     0.821758
      pz      :     0.035180  p :     0.061750
      px      :     0.016319
      py      :     0.010252
 19 O s       :     3.399397  s :     3.399397
      pz      :     1.336214  p :     4.436502
      px      :     1.491887
      py      :     1.608401
      dz2     :     0.007785  d :     0.066692
      dxz     :     0.015403
      dyz     :     0.001177
      dx2y2   :     0.023235
      dxy     :     0.019092
      f0      :     0.000500  f :     0.006240
      f+1     :     0.000908
      f-1     :     0.000127
      f+2     :     0.000869
      f-2     :     0.000306
      f+3     :     0.001714
[...]
     44      -0.000004   0.000491   0.009775  -0.006510  -0.000011  -0.000005
     45       0.000049  -0.000627   0.023552  -0.018001   0.000031  -0.036080
     46       0.001584  -0.002016   0.015788  -0.012591   0.000004  -0.022192
     47       0.000220  -0.000074  -0.003450   0.002597  -0.000018   0.005417
     48      -0.024369  -0.005149  -0.183153   0.134140  -0.000377  -0.237097
     49      -0.015916  -0.005512  -0.127331   0.092488   0.000505   0.364243
     50       0.003114   0.000792   0.027244  -0.019848   0.000115   0.087198
     51      -0.002354   0.003750  -0.002800   0.004063   0.000199   0.455995
     52      -0.023981   0.000959  -0.126115   0.095868  -0.000191  -0.090480
     53      -0.000877  -0.005115   0.013418  -0.011971   0.000281   0.432951
     54      -0.003177   0.005981  -0.012593   0.012448   0.000022   0.229964
     55      -0.023292   0.000237  -0.119415   0.090550  -0.000145   0.008608
     56      -0.002678   0.003322  -0.032955   0.026043  -0.000296  -0.587486
     57      -0.073694   0.006637  -0.341505   0.258175  -0.000156   0.000770
     58       0.003224  -0.004483   0.059045  -0.041407  -0.000043  -0.000208
     59       0.016017  -0.001814   0.078036  -0.058725   0.000039  -0.000171
                 54         55         56         57         58         59    
      0      -0.000003   0.000721   0.001774  -0.041917   0.071516   0.004434
      1       0.000002  -0.000184  -0.000614   0.011188  -0.013079  -0.001258
      2       0.000006  -0.000171  -0.000440   0.009798  -0.016159  -0.001042
      3      -0.000046   0.000039  -0.000117  -0.000311  -0.000622   0.002966
      4       0.000025   0.000008   0.000395  -0.000687   0.002486  -0.000049
      5      -0.000246  -0.000006   0.000056  -0.000004   0.000356  -0.000629
      6       0.000010  -0.001373  -0.006266   0.001071   0.001605  -0.023745
      7      -0.000025   0.002939   0.012332  -0.002954  -0.006834   0.081200
      8       0.000013   0.000554   0.002425  -0.000496  -0.000956   0.012249
      9      -0.000023   0.016272   0.079264   0.002379   0.000190  -0.017114
     10       0.000002  -0.003552  -0.017208   0.000213   0.000482   0.000870
     11       0.000012  -0.003726  -0.018145  -0.000475  -0.000003   0.003657
     12       0.000000   0.000014  -0.000099  -0.001520  -0.001704   0.000168
     13      -0.000000   0.000493   0.002288   0.000060   0.000325  -0.000979
     14      -0.000000   0.000042   0.000229   0.000338   0.000380  -0.000114
     15       0.000002  -0.000259  -0.000841   0.020863   0.010264   0.001697
     16      -0.000018   0.000397   0.000828  -0.068636  -0.045567  -0.006433
     17       0.000004   0.000087   0.000237  -0.010502  -0.006212  -0.000920
     18      -0.000057   0.001607   0.003748  -0.233006  -0.141782  -0.020317
     19       0.000183  -0.004720  -0.009052   0.801936   0.497824   0.072195
     20       0.000027  -0.000750  -0.001558   0.120324   0.074125   0.010540
     21      -0.000085   0.011766   0.051717  -0.009882  -0.023354   0.271327
     22       0.000257  -0.039029  -0.169609   0.031312   0.079358  -0.926502
     23      -0.000010  -0.005994  -0.026184   0.004865   0.012019  -0.139932
     24       0.000282  -0.187934  -0.914806  -0.027086  -0.001387   0.172546
     25      -0.000063   0.040957   0.199138   0.004896  -0.000140  -0.034678
     26      -0.000126   0.043059   0.209594   0.006115   0.000447  -0.039284
     27       0.000005   0.000086   0.000621  -0.000162  -0.000228  -0.000324
     28      -0.000004   0.000133   0.000678  -0.000721  -0.000592  -0.000303
     29      -0.000000  -0.000003  -0.000048  -0.000042  -0.000016   0.000040
     30      -0.000057  -0.000780  -0.005454   0.005605   0.004982   0.002428
     31       0.000019  -0.000664  -0.002695  -0.000630  -0.000659   0.000064
     32      -0.000012   0.000064   0.000725  -0.001130  -0.001111  -0.000502
     33      -0.000000  -0.000020  -0.000106  -0.000267  -0.000150   0.000007
     34      -0.000000  -0.000074  -0.000456   0.000309   0.000288   0.000226
     35       0.000003  -0.000004  -0.000019   0.000085   0.000057   0.000025
     36       0.000027  -0.008312  -0.020721   0.503950  -0.806029  -0.046948
     37      -0.000015   0.001776   0.004859  -0.107936   0.167837   0.010164
     38      -0.000006   0.001928   0.004885  -0.115351   0.184046   0.010659
     39       0.000031  -0.000862   0.000000  -0.000463   0.001065  -0.000353
     40      -0.000032  -0.000621   0.000063   0.000103  -0.000211   0.000849
     41       0.000272   0.000131   0.000011   0.000106  -0.000237   0.000158
     42       0.000083   0.000213   0.000075   0.000044  -0.000168   0.000435
     43      -0.000035  -0.000173   0.000102   0.000046  -0.000177  -0.000097
     44       0.000349  -0.000066   0.000002  -0.000007   0.000014  -0.000100
     45      -0.020469  -0.064821   0.013129  -0.000345   0.000199   0.000226
     46       0.009344   0.063082  -0.012913   0.000299  -0.000054  -0.000420
     47      -0.092599   0.020698  -0.004237   0.000126  -0.000044  -0.000110
     48      -0.001255   0.468914  -0.095745   0.002187  -0.000724  -0.002472
     49      -0.002497  -0.722991   0.147659  -0.003218   0.000718   0.003680
     50      -0.019903  -0.172475   0.035236  -0.000783   0.000213   0.000884
     51       0.515786   0.204384  -0.040589   0.001211  -0.000808   0.000204
     52      -0.106472  -0.033992   0.006807  -0.000158   0.000025   0.000061
     53       0.465540   0.210703  -0.042012   0.001225  -0.000721   0.000017
     54      -0.272265   0.099401  -0.019853   0.000717  -0.000413   0.000062
     55      -0.001435   0.013386  -0.002616   0.000112  -0.000154   0.000057
     56       0.649835  -0.284091   0.057092  -0.001864   0.000844   0.000190
     57       0.000031   0.000369   0.000001   0.000188  -0.000373  -0.000127
     58      -0.000011   0.000135  -0.000017  -0.000219   0.000293  -0.000164
     59       0.000109  -0.000070  -0.000016  -0.000059   0.000110   0.000016


-----------
IR SPECTRUM
-----------

 Mode   freq       eps      Int      T**2         TX        TY        TZ
       cm**-1   L/(mol*cm) km/mol    a.u.
----------------------------------------------------------------------------
  6:     34.57   0.000011    0.06  0.000103  (-0.002053  0.001022 -0.009882)
  7:     64.19   0.000495    2.50  0.002406  (-0.011996  0.005073 -0.047291)
  8:    120.22   0.001788    9.04  0.004641  ( 0.021835 -0.002879  0.064469)
  9:    123.21   0.001107    5.59  0.002803  ( 0.003749 -0.006543  0.052406)
 10:    136.14   0.000147    0.74  0.000337  ( 0.003678 -0.001140  0.017957)
 11:    175.71   0.000029    0.15  0.000051  ( 0.002387 -0.001406  0.006601)
 12:    203.82   0.003022   15.27  0.004626  ( 0.066487  0.000908 -0.014312)
 13:    288.93   0.002298   11.61  0.002482  (-0.010495  0.001812 -0.048672)
 14:    301.29   0.002377   12.01  0.002462  ( 0.010493 -0.048158 -0.005746)
 15:    312.75   0.005516   27.87  0.005504  ( 0.029174  0.068196 -0.001347)
 16:    403.76   0.000105    0.53  0.000082  (-0.000602 -0.001934  0.008799)
 17:    449.97   0.000099    0.50  0.000069  (-0.007694 -0.001993  0.002323)
 18:    469.74   0.001691    8.55  0.001123  (-0.007326  0.003662 -0.032500)
 19:    526.51   0.001445    7.30  0.000857  ( 0.022024  0.019110 -0.002544)
 20:    625.39   0.000464    2.35  0.000232  ( 0.009627  0.011723 -0.001236)
 21:    673.08   0.003332   16.84  0.001545  (-0.034698 -0.017308  0.006415)
 22:    691.76   0.004875   24.64  0.002199  (-0.010509  0.004327 -0.045499)
 23:    758.34   0.009292   46.96  0.003824  (-0.012475  0.005768 -0.060290)
 24:    793.52   0.016338   82.57  0.006425  ( 0.071174  0.035071 -0.011383)
 25:    844.05   0.005274   26.65  0.001950  ( 0.025507  0.035865 -0.003616)
 26:    846.74   0.000906    4.58  0.000334  (-0.004899 -0.000330 -0.017605)
 27:    862.93   0.004637   23.43  0.001677  (-0.009393  0.003595 -0.039695)
 28:    944.75   0.004288   21.67  0.001416  (-0.032120 -0.018914  0.005182)
 29:    970.96   0.000023    0.12  0.000008  (-0.000268 -0.000583  0.002669)
 30:    989.57   0.000153    0.77  0.000048  (-0.000241 -0.000086 -0.006945)
 31:   1015.60   0.006610   33.41  0.002031  (-0.021454 -0.039623  0.000957)
 32:   1017.66   0.000537    2.71  0.000165  (-0.002225  0.002245 -0.012437)
 33:   1094.99   0.047752  241.32  0.013609  ( 0.024710  0.113886  0.005325)
 34:   1106.60   0.005478   27.68  0.001545  ( 0.023484  0.031455 -0.001946)
 35:   1149.74   0.000311    1.57  0.000084  ( 0.000785 -0.000730  0.009123)
 36:   1165.11   0.001058    5.35  0.000283  (-0.011826  0.011460  0.003497)
 37:   1189.58   0.026037  131.58  0.006830  (-0.020145 -0.080095 -0.003060)
 38:   1204.58   0.040936  206.88  0.010605  ( 0.066836  0.078017 -0.007172)
 39:   1254.04   0.113427  573.21  0.028226  ( 0.044417  0.161935  0.005459)
 40:   1308.16   0.004946   25.00  0.001180  ( 0.025100  0.023225 -0.003245)
 41:   1348.33   0.001913    9.67  0.000443  ( 0.001755 -0.020860 -0.002114)
 42:   1396.69   0.007776   39.30  0.001737  ( 0.035160 -0.020334 -0.009365)
 43:   1426.75   0.000509    2.57  0.000111  ( 0.008995 -0.004943 -0.002428)
 44:   1447.40   0.004420   22.34  0.000953  ( 0.021524  0.021971 -0.002644)
 45:   1466.85   0.002443   12.34  0.000520  ( 0.003889 -0.000506  0.022456)
 46:   1475.84   0.002257   11.40  0.000477  (-0.010327  0.019041  0.002822)
 47:   1507.45   0.006572   33.21  0.001361  ( 0.021316  0.030048 -0.001813)
 48:   1574.74   0.013277   67.10  0.002631  ( 0.038230  0.033825 -0.005047)
 49:   1613.49   0.007137   36.07  0.001380  (-0.015473 -0.033777  0.000305)
 50:   1679.26   0.098337  496.96  0.018274  ( 0.118026  0.062929 -0.019599)
 51:   1683.56   0.092380  466.85  0.017123  (-0.051666  0.118255  0.021674)
 52:   2887.26   0.031299  158.17  0.003383  (-0.056629  0.004750  0.012387)
 53:   3026.88   0.005797   29.29  0.000598  (-0.013871 -0.020097  0.001166)
 54:   3104.44   0.004827   24.39  0.000485  (-0.004682  0.002232 -0.021409)
 55:   3138.82   0.002666   13.47  0.000265  (-0.008069  0.013757  0.003271)
 56:   3139.36   0.002353   11.89  0.000234  ( 0.014170 -0.004417 -0.003682)
 57:   3157.02   0.000039    0.20  0.000004  ( 0.001279  0.001476 -0.000103)
 58:   3170.17   0.000611    3.09  0.000060  ( 0.006347 -0.004025 -0.001912)
 59:   3179.52   0.000646    3.27  0.000063  (-0.004644  0.006261  0.001631)

* The epsilon (eps) is given for a Dirac delta lineshape.
** The dipole moment derivative (T) already includes vibrational overlap.

The first frequency considered to be a vibration is 6
The total number of vibrations considered is 54


--------------------------
THERMOCHEMISTRY AT 298.15K
--------------------------

Temperature         ... 298.15 K
Pressure            ... 1.00 atm
Total Mass          ... 164.16 AMU

Throughout the following assumptions are being made:
  (1) The electronic state is orbitally nondegenerate
  (2) There are no thermally accessible electronically excited states
  (3) Hindered rotations indicated by low frequency modes are not
      treated as such but are treated as vibrations and this may
      cause some error
  (4) All equations used are the standard statistical mechanics
      equations for an ideal gas
  (5) All vibrations are strictly harmonic

freq.      34.57  E(vib)   ...       0.54 
freq.      64.19  E(vib)   ...       0.51 
freq.     120.22  E(vib)   ...       0.44 
freq.     123.21  E(vib)   ...       0.43 
freq.     136.14  E(vib)   ...       0.42 
freq.     175.71  E(vib)   ...       0.38 
freq.     203.82  E(vib)   ...       0.35 
freq.     288.93  E(vib)   ...       0.27 
freq.     301.29  E(vib)   ...       0.26 
freq.     312.75  E(vib)   ...       0.25 
freq.     403.76  E(vib)   ...       0.19 
freq.     449.97  E(vib)   ...       0.17 
freq.     469.74  E(vib)   ...       0.16 
freq.     526.51  E(vib)   ...       0.13 
freq.     625.39  E(vib)   ...       0.09 
freq.     673.08  E(vib)   ...       0.08 
freq.     691.76  E(vib)   ...       0.07 
freq.     758.34  E(vib)   ...       0.06 
freq.     793.52  E(vib)   ...       0.05 
freq.     844.05  E(vib)   ...       0.04 
freq.     846.74  E(vib)   ...       0.04 
freq.     862.93  E(vib)   ...       0.04 
freq.     944.75  E(vib)   ...       0.03 
freq.     970.96  E(vib)   ...       0.03 
freq.     989.57  E(vib)   ...       0.02 
freq.    1015.60  E(vib)   ...       0.02 
freq.    1017.66  E(vib)   ...       0.02 
freq.    1094.99  E(vib)   ...       0.02 
freq.    1106.60  E(vib)   ...       0.02 
freq.    1149.74  E(vib)   ...       0.01 
freq.    1165.11  E(vib)   ...       0.01 
freq.    1189.58  E(vib)   ...       0.01 
freq.    1204.58  E(vib)   ...       0.01 
freq.    1254.04  E(vib)   ...       0.01 
freq.    1308.16  E(vib)   ...       0.01 
freq.    1348.33  E(vib)   ...       0.01 
freq.    1396.69  E(vib)   ...       0.00 
freq.    1426.75  E(vib)   ...       0.00 
freq.    1447.40  E(vib)   ...       0.00 
freq.    1466.85  E(vib)   ...       0.00 
freq.    1475.84  E(vib)   ...       0.00 
freq.    1507.45  E(vib)   ...       0.00 
freq.    1574.74  E(vib)   ...       0.00 
freq.    1613.49  E(vib)   ...       0.00 
freq.    1679.26  E(vib)   ...       0.00 
freq.    1683.56  E(vib)   ...       0.00 
freq.    2887.26  E(vib)   ...       0.00 
freq.    3026.88  E(vib)   ...       0.00 
freq.    3104.44  E(vib)   ...       0.00 
freq.    3138.82  E(vib)   ...       0.00 
freq.    3139.36  E(vib)   ...       0.00 
freq.    3157.02  E(vib)   ...       0.00 
freq.    3170.17  E(vib)   ...       0.00 
freq.    3179.52  E(vib)   ...       0.00 

------------
INNER ENERGY
------------

The inner energy is: U= E(el) + E(ZPE) + E(vib) + E(rot) + E(trans)
    E(el)   - is the total energy from the electronic structure calculation
              = E(kin-el) + E(nuc-el) + E(el-el) + E(nuc-nuc)
    E(ZPE)  - the the zero temperature vibrational energy from the frequency calculation
    E(vib)  - the the finite temperature correction to E(ZPE) due to population
              of excited vibrational states
    E(rot)  - is the rotational thermal energy
    E(trans)- is the translational thermal energy

Summary of contributions to the inner energy U:
Electronic energy                ...   -573.80202600 Eh
Zero point energy                ...      0.14931525 Eh      93.70 kcal/mol
Thermal vibrational correction   ...      0.00831424 Eh       5.22 kcal/mol
Thermal rotational correction    ...      0.00141627 Eh       0.89 kcal/mol
Thermal translational correction ...      0.00141627 Eh       0.89 kcal/mol
-----------------------------------------------------------------------
Total thermal energy                   -573.64156396 Eh


Summary of corrections to the electronic energy:
(perhaps to be used in another calculation)
Total thermal correction                  0.01114678 Eh       6.99 kcal/mol
Non-thermal (ZPE) correction              0.14931525 Eh      93.70 kcal/mol
-----------------------------------------------------------------------
Total correction                          0.16046203 Eh     100.69 kcal/mol


--------
ENTHALPY
--------

The enthalpy is H = U + kB*T
                kB is Boltzmann's constant
Total free energy                 ...   -573.64156396 Eh 
Thermal Enthalpy correction       ...      0.00094421 Eh       0.59 kcal/mol
-----------------------------------------------------------------------
Total Enthalpy                    ...   -573.64061976 Eh


Note: Only C1 symmetry has been detected, increase convergence thresholds 
      if your molecule has a higher symmetry. Symmetry factor of 1.0 is   
      used for the rotational entropy correction. 
 

Note: Rotational entropy computed according to Herzberg 
Infrared and Raman Spectra, Chapter V,1, Van Nostrand Reinhold, 1945 
Point Group:  C1, Symmetry Number:   1  
Rotational constants in cm-1:     0.110641     0.014320     0.012710 

Vibrational entropy computed according to the QRRHO of S. Grimme
Chem.Eur.J. 2012 18 9955


-------
ENTROPY
-------

The entropy contributions are T*S = T*(S(el)+S(vib)+S(rot)+S(trans))
     S(el)   - electronic entropy
     S(vib)  - vibrational entropy
     S(rot)  - rotational entropy
     S(trans)- translational entropy
The entropies will be listed as multiplied by the temperature to get
units of energy

Electronic entropy                ...      0.00000000 Eh      0.00 kcal/mol
Vibrational entropy               ...      0.01467326 Eh      9.21 kcal/mol
Rotational entropy                ...      0.01461552 Eh      9.17 kcal/mol
Translational entropy             ...      0.01957325 Eh     12.28 kcal/mol
-----------------------------------------------------------------------
Final entropy term                ...      0.04886203 Eh     30.66 kcal/mol

In case the symmetry of your molecule has not been determined correctly
or in case you have a reason to use a different symmetry number we print 
out the resulting rotational entropy values for sn=1,12 :
 --------------------------------------------------------
|  sn= 1 | S(rot)=       0.01461552 Eh      9.17 kcal/mol|
|  sn= 2 | S(rot)=       0.01396106 Eh      8.76 kcal/mol|
|  sn= 3 | S(rot)=       0.01357823 Eh      8.52 kcal/mol|
|  sn= 4 | S(rot)=       0.01330661 Eh      8.35 kcal/mol|
|  sn= 5 | S(rot)=       0.01309592 Eh      8.22 kcal/mol|
|  sn= 6 | S(rot)=       0.01292377 Eh      8.11 kcal/mol|
|  sn= 7 | S(rot)=       0.01277823 Eh      8.02 kcal/mol|
|  sn= 8 | S(rot)=       0.01265215 Eh      7.94 kcal/mol|
|  sn= 9 | S(rot)=       0.01254094 Eh      7.87 kcal/mol|
|  sn=10 | S(rot)=       0.01244146 Eh      7.81 kcal/mol|
|  sn=11 | S(rot)=       0.01235147 Eh      7.75 kcal/mol|
|  sn=12 | S(rot)=       0.01226932 Eh      7.70 kcal/mol|
 --------------------------------------------------------


-------------------
GIBBS FREE ENERGY
-------------------

The Gibbs free energy is G = H - T*S

Total enthalpy                    ...   -573.64061976 Eh 
Total entropy correction          ...     -0.04886203 Eh    -30.66 kcal/mol
-----------------------------------------------------------------------
Final Gibbs free energy         ...   -573.68948178 Eh

For completeness - the Gibbs free energy minus the electronic energy
G-E(el)                           ...      0.11254421 Eh     70.62 kcal/mol



Timings for individual modules:

Sum of individual times         ...     4271.063 sec (=  71.184 min)
GTO integral calculation        ...       13.157 sec (=   0.219 min)   0.3 %
SCF iterations                  ...      404.997 sec (=   6.750 min)   9.5 %
SCF Gradient evaluation         ...      118.698 sec (=   1.978 min)   2.8 %
Geometry relaxation             ...        1.010 sec (=   0.017 min)   0.0 %
Numerical frequency calculation ...     3733.201 sec (=  62.220 min)  87.4 %
                             ****ORCA TERMINATED NORMALLY****
TOTAL RUN TIME: 0 days 1 hours 10 minutes 53 seconds 803 msec
‘Aldehyd_freqopt.cpcm’ -> ‘/home/rothe/Calc/Li_Path/THF/Aldehyd/Aldehyd_freqopt.cpcm’
‘Aldehyd_freqopt.densities’ -> ‘/home/rothe/Calc/Li_Path/THF/Aldehyd/Aldehyd_freqopt.densities’
‘Aldehyd_freqopt.engrad’ -> ‘/home/rothe/Calc/Li_Path/THF/Aldehyd/Aldehyd_freqopt.engrad’
‘Aldehyd_freqopt.err’ -> ‘/home/rothe/Calc/Li_Path/THF/Aldehyd/Aldehyd_freqopt.err’
‘Aldehyd_freqopt.gbw’ -> ‘/home/rothe/Calc/Li_Path/THF/Aldehyd/Aldehyd_freqopt.gbw’
‘Aldehyd_freqopt.hess’ -> ‘/home/rothe/Calc/Li_Path/THF/Aldehyd/Aldehyd_freqopt.hess’
‘Aldehyd_freqopt.job’ -> ‘/home/rothe/Calc/Li_Path/THF/Aldehyd/Aldehyd_freqopt.job’
‘Aldehyd_freqopt.opt’ -> ‘/home/rothe/Calc/Li_Path/THF/Aldehyd/Aldehyd_freqopt.opt’
‘Aldehyd_freqopt_property.txt’ -> ‘/home/rothe/Calc/Li_Path/THF/Aldehyd/Aldehyd_freqopt_property.txt’
‘Aldehyd_freqopt_trj.xyz’ -> ‘/home/rothe/Calc/Li_Path/THF/Aldehyd/Aldehyd_freqopt_trj.xyz’
‘Aldehyd_freqopt.xyz’ -> ‘/home/rothe/Calc/Li_Path/THF/Aldehyd/Aldehyd_freqopt.xyz’
