20
 energy: -35.538710794814 gnorm: 0.058044160136 xtb: 6.4.1 (afa7bdf)
C        -2.67772274650000   -0.37076630230000    0.42562203880000
C        -2.30888978840000   -1.70213948180000    0.18340327910000
C        -0.97400908160000   -2.00181404510000   -0.13048414400000
C        -0.01315185760000   -0.98605127960000   -0.17221210670000
C        -0.38772537180000    0.33293308170000    0.09743132240000
C        -1.71922889230000    0.64553449560000    0.38465085750000
H        -2.01141043500000    1.67396535760000    0.59004985930000
H        -0.66561947960000   -3.02552319340000   -0.33138029270000
H         1.01875389580000   -1.23953094940000   -0.40260195610000
C         0.64116263290000    1.39240977440000    0.09517343870000
H         1.67407031850000    1.07595043280000   -0.12720768920000
O         0.37115107100000    2.56207149650000    0.33586524670000
H        -3.71064794790000   -0.12099452300000    0.66430633450000
C        -3.35292169680000   -2.75604792600000    0.31131713840000
O        -2.80054565210000   -3.98762653210000    0.18179897380000
C        -3.70874473900000   -5.06373554900000    0.42192558520000
H        -3.20021708420000   -5.99789365970000    0.16800095630000
H        -4.60295385080000   -4.97565097800000   -0.20284513220000
H        -3.97710810830000   -5.09239252290000    1.48255160250000
O        -4.52689190150000   -2.51832006520000    0.54905583590000
20
 energy: -35.542001563369 gnorm: 0.020801587013 xtb: 6.4.1 (afa7bdf)
C        -2.66811466415836   -0.36970741167026    0.42544718909101
C        -2.29861180444394   -1.69480507406120    0.18617583766158
C        -0.97178421413929   -1.99682729999018   -0.12415221893747
C        -0.02212534186157   -0.98912658044670   -0.16714526556236
C        -0.38961210553570    0.33134464623688    0.09862776584475
C        -1.71989108832059    0.63784282867526    0.38539475530403
H        -2.00234413208764    1.66223656751554    0.58427591047902
H        -0.67799393466214   -3.01699783347805   -0.32411304987646
H         1.00399915214355   -1.23532214809158   -0.40034948334211
C         0.62565890958197    1.39733877533715    0.09407555404037
H         1.65267448677228    1.06864631497142   -0.13183034383375
O         0.38240871099707    2.56229611726656    0.32775488200002
H        -3.69772631520603   -0.13545186101495    0.65936612133240
C        -3.33420279033076   -2.75378381057686    0.32490112684636
O        -2.81349115883611   -3.98573220037289    0.19552044455941
C        -3.71297323179499   -5.06940183156181    0.41889005312076
H        -3.18040796683773   -5.98406593028152    0.15528752120782
H        -4.60555254928413   -4.96194920104971   -0.20020161358244
H        -4.00013041048460   -5.09542574583108    1.47234162078821
O        -4.50243026671128   -2.52673069047601    0.54415434105884
20
 energy: -35.542526433054 gnorm: 0.006727671033 xtb: 6.4.1 (afa7bdf)
C        -2.66491444733379   -0.37089355523732    0.43367312625356
C        -2.29106233466352   -1.69277942455025    0.19579774335262
C        -0.96683860015436   -1.99586717583684   -0.11602427214227
C        -0.02365065301286   -0.98973015744904   -0.16410564531601
C        -0.38994530028796    0.33175638874474    0.09883929569192
C        -1.72208110494660    0.63396966979878    0.38724747664867
H        -1.99603532824684    1.65894611568053    0.58087956320950
H        -0.68389144388027   -3.01662405291494   -0.31302120708064
H         1.00236186273273   -1.22714024031871   -0.39784393011350
C         0.61694883556932    1.40148481420977    0.08966247518866
H         1.64106442855533    1.06063126858975   -0.14403092013359
O         0.39194284364324    2.56681379061476    0.31618674261728
H        -3.69603920477851   -0.15052053309667    0.66204955094596
C        -3.32574686846209   -2.75268089569377    0.32475393864129
O        -2.81863084694946   -3.98250609113004    0.20841429884324
C        -3.71706847240961   -5.07007900947691    0.41512878505099
H        -3.16722163865863   -5.96961646107626    0.14783132595612
H        -4.60426845034052   -4.95464217305221   -0.20925409280553
H        -4.02306703316477   -5.10171670577266    1.46285868960137
O        -4.49450695841084   -2.53442794093270    0.54537820379037
20
 energy: -35.542612146078 gnorm: 0.002767747282 xtb: 6.4.1 (afa7bdf)
C        -2.66608248320218   -0.37046766019264    0.43733911179023
C        -2.28866889675180   -1.69250238293008    0.20361919547425
C        -0.96405100938993   -1.99639276695602   -0.10849057050661
C        -0.02259668884532   -0.98898002248844   -0.16082492800158
C        -0.39074446595932    0.33309611330621    0.09822672358845
C        -1.72388525022002    0.63459249476478    0.38859038651733
H        -1.99422878703802    1.66153292670968    0.57871984208527
H        -0.68460611751624   -3.01898394603021   -0.30135769238992
H         1.00459718856155   -1.22164160185846   -0.39619749943248
C         0.61425204846786    1.40310337602082    0.07965390862533
H         1.63824585961656    1.05521215238943   -0.15314016651453
O         0.39695398565624    2.56981282010493    0.30532626173523
H        -3.69822476553460   -0.15683811602464    0.66789247828330
C        -3.32106248144115   -2.75306979580900    0.33891525253789
O        -2.81715513800252   -3.98173792876555    0.22157002782385
C        -3.71916079718582   -5.07092350886174    0.40892235973246
H        -3.16396991048186   -5.96513041854857    0.13967201312213
H        -4.60000545943822   -4.94918877339663   -0.22386333482620
H        -4.03775273331146   -5.11118711054882    1.45292075497551
O        -4.49450481318374   -2.53592821978504    0.54692702358012
20
 energy: -35.542655541488 gnorm: 0.003060787651 xtb: 6.4.1 (afa7bdf)
C        -2.66686186602926   -0.37026434984689    0.44497301609444
C        -2.28686165155026   -1.69282433505882    0.21377916396170
C        -0.96184500599382   -1.99721659813760   -0.09945369646927
C        -0.02168152786933   -0.98818576435903   -0.15714637099443
C        -0.39201781718359    0.33422743938615    0.09824123669923
C        -1.72558674360519    0.63596913408063    0.39037771778428
H        -1.99350073636436    1.66479861481816    0.57737706497122
H        -0.68437531405956   -3.02137836245980   -0.28917330400420
H         1.00663576497707   -1.21734977936896   -0.39384657110388
C         0.61380488099895    1.40245644279532    0.07535366382979
H         1.63554143518150    1.05164940777383   -0.16956655302395
O         0.40044024748974    2.57185150262059    0.29246097098906
H        -3.70032360794581   -0.16100595116745    0.67539868859604
C        -3.31917757147833   -2.75321766521814    0.34455002228064
O        -2.81489812493792   -3.98137837037465    0.23292546714284
C        -3.72034244134552   -5.07153974132252    0.40314579848269
H        -3.16166583677525   -5.96308823769995    0.13473581942971
H        -4.59327459627033   -4.94489687267482   -0.24014863945983
H        -4.05177632032389   -5.11890971446063    1.44300605754802
O        -4.49488388211484   -2.53531916822545    0.54743159544591
20
 energy: -35.542682389432 gnorm: 0.003457761120 xtb: 6.4.1 (afa7bdf)
C        -2.66667626131693   -0.37010756513425    0.45306081963260
C        -2.28570052276726   -1.69320014640005    0.22324370864660
C        -0.96064784611050   -1.99785338461436   -0.09121809776182
C        -0.02137431624768   -0.98775806677551   -0.15421775397492
C        -0.39339814766381    0.33501190411866    0.09718700329081
C        -1.72625893686344    0.63710967082032    0.39317405669603
H        -1.99357547590236    1.66714358786899    0.57674196810240
H        -0.68344954135838   -3.02291439769824   -0.27816220963181
H         1.00725410095730   -1.21538933348286   -0.39240443948353
C         0.61251200473826    1.40282116461993    0.06248821786398
H         1.63467701530656    1.04907880622201   -0.17714787157081
O         0.40184127488805    2.57235005438909    0.28242260392767
H        -3.70071728891520   -0.16245124822087    0.68345161370964
C        -3.31868909565847   -2.75331396464430    0.34800158100605
O        -2.81277075008364   -3.98141488020031    0.24170223394325
C        -3.72083743751598   -5.07195179997131    0.39809265365686
H        -3.16045930586712   -5.96302232882224    0.13153653181679
H        -4.58632257094959   -4.94144668470728   -0.25458291052467
H        -4.06292709574172   -5.12455009506818    1.43406212629649
O        -4.49513051812807   -2.53376366119921    0.54698931255840
20
 energy: -35.542708667435 gnorm: 0.002204500230 xtb: 6.4.1 (afa7bdf)
C        -2.66575093504678   -0.36982104410094    0.45764832974232
C        -2.28519403603901   -1.69329438021814    0.22933104717750
C        -0.96036430328966   -1.99816987519479   -0.08513447113304
C        -0.02137614178405   -0.98810730057385   -0.15108609160030
C        -0.39389009928968    0.33501404992459    0.09719535497222
C        -1.72589293509970    0.63763233563891    0.39484586388407
H        -1.99386036320609    1.66763525033671    0.57703039683767
H        -0.68222194853150   -3.02337545887444   -0.26967990559287
H         1.00679415630321   -1.21629033025578   -0.38993605105081
C         0.61243006932254    1.40256629776424    0.05733071195622
H         1.63336829278118    1.05003750332319   -0.18693044117385
O         0.40066647163757    2.57264055051349    0.27350756341802
H        -3.69916547277225   -0.16151114681101    0.68995391469204
C        -3.31854360610692   -2.75346677738360    0.35290044748324
O        -2.81158564496235   -3.98165584888327    0.24715681529005
C        -3.72106995278314   -5.07213099601626    0.39395756004792
H        -3.16013966960412   -5.96382263976479    0.12896379072893
H        -4.58124233041544   -4.93901002867649   -0.26476478329608
H        -4.07019446879782   -5.12789057500007    1.42696959829296
O        -4.49541779751598   -2.53260195464771    0.54516149752379
20
 energy: -35.542734324966 gnorm: 0.000872006087 xtb: 6.4.1 (afa7bdf)
C        -2.66360244496154   -0.37001385104184    0.46457253990033
C        -2.28422800557358   -1.69358525084390    0.23738288364281
C        -0.95987368952797   -1.99871572253267   -0.07690467390849
C        -0.02129687687709   -0.98901305686370   -0.14687090852265
C        -0.39358028507277    0.33479352515566    0.09744826534230
C        -1.72442990856121    0.63747718121213    0.39786175646796
H        -1.99370133216970    1.66701208912299    0.57843565986999
H        -0.68069373656182   -3.02366559735496   -0.25974849636060
H         1.00589385586658   -1.21865911294439   -0.38678330815664
C         0.61177507831545    1.40344357943509    0.05020131223153
H         1.63118509321182    1.05263547461259   -0.19940667895288
O         0.39812768841440    2.57400939468942    0.26145356640988
H        -3.69607404276629   -0.15989482352846    0.69856793062744
C        -3.31877957995093   -2.75369731851403    0.35738566818415
O        -2.81104607765193   -3.98190477964513    0.25280400445764
C        -3.72163819247779   -5.07204250946875    0.38893248535111
H        -3.15884428927430   -5.96397602209998    0.12702052862042
H        -4.57519116544602   -4.93703013919344   -0.27737551504621
H        -4.08056535465874   -5.13029359058269    1.41811227884756
O        -4.49608744947658   -2.53250183851394    0.54133184919435
20
 energy: -35.542757658585 gnorm: 0.001463929222 xtb: 6.4.1 (afa7bdf)
C        -2.66072814964324   -0.37058502251444    0.47568456956448
C        -2.28250720545640   -1.69420526345678    0.24959210772082
C        -0.95860710167167   -1.99968786594303   -0.06503685161185
C        -0.02063239825061   -0.99010046702787   -0.14100371910459
C        -0.39259126086943    0.33468814578890    0.09810312762099
C        -1.72213499251997    0.63704262845725    0.40334963509602
H        -1.99277733724585    1.66633285874354    0.58164425237272
H        -0.67841562732891   -3.02465239237032   -0.24527202046529
H         1.00551527364267   -1.22137608972765   -0.38291619954587
C         0.61021575646231    1.40555111585950    0.03817352190542
H         1.62803943218464    1.05607586392493   -0.21751291988110
O         0.39453406187928    2.57682769670310    0.24290341228477
H        -3.69213211630107   -0.15838894422946    0.71217901255381
C        -3.31879994352586   -2.75400606761842    0.36335313072595
O        -2.81034248147463   -3.98228255191944    0.26176247956075
C        -3.72290855836846   -5.07198794798838    0.38149586051875
H        -3.15625712424719   -5.96352275344261    0.12594886845389
H        -4.56613772357116   -4.93526790769668   -0.29759626983746
H        -4.09840463932148   -5.13300818251782    1.40471708454567
O        -4.49757857957298   -2.53306922192433    0.53485206572211
20
 energy: -35.542769944131 gnorm: 0.000865200529 xtb: 6.4.1 (afa7bdf)
C        -2.65942992854148   -0.37110319628204    0.48323280235306
C        -2.28112935106047   -1.69477747050259    0.25716718234816
C        -0.95715485806189   -2.00042876483106   -0.05779533500368
C        -0.01966267399781   -0.99046278682535   -0.13712049477347
C        -0.39200603333726    0.33478900070075    0.09889806988294
C        -1.72108131455339    0.63676515479348    0.40743482055985
H        -1.99169106537915    1.66648896551619    0.58429508790877
H        -0.67694705096860   -3.02578955955055   -0.23633602628880
H         1.00638710901548   -1.22177835103035   -0.38025829894703
C         0.60862724959617    1.40695142135706    0.02979001344848
H         1.62611898993900    1.05730330845029   -0.22837023024114
O         0.39226879495299    2.57892573653178    0.22976437361214
H        -3.69064233256134   -0.15871572127501    0.72078271915493
C        -3.31812705314062   -2.75412416422881    0.36644224807603
O        -2.81007972404604   -3.98266606105161    0.26680854795204
C        -3.72417030264308   -5.07208581036839    0.37648385444322
H        -3.15500137672515   -5.96321170575269    0.12638645598631
H        -4.56045894951716   -4.93474921268930   -0.31125560351414
H        -4.11065751519659   -5.13366306403647    1.39556101928464
O        -4.49781332897359   -2.53329008782531    0.53250994195769
20
 energy: -35.542778129106 gnorm: 0.000392084556 xtb: 6.4.1 (afa7bdf)
C        -2.65834680849603   -0.37171223997476    0.48882897755224
C        -2.27971914522247   -1.69543433604857    0.26280915555343
C        -0.95560355519581   -2.00104580305944   -0.05217459462049
C        -0.01863281273145   -0.99067888424725   -0.13386146899392
C        -0.39161508938410    0.33479791682885    0.09981358311864
C        -1.72038911323393    0.63637572361604    0.41067615219999
H        -1.99072065930562    1.66642967491334    0.58673195630179
H        -0.67555012580028   -3.02667296416392   -0.22971693273519
H         1.00748878153748   -1.22170887904827   -0.37747268392338
C         0.60700683027803    1.40800465381282    0.02311013729467
H         1.62462941724383    1.05829751313587   -0.23566267442579
O         0.38961643722180    2.58076964502747    0.21748355545402
H        -3.68946511788187   -0.15969085773611    0.72726373707034
C        -3.31700739609457   -2.75432762250638    0.36952818336023
O        -2.80996324557756   -3.98318804269165    0.26897174503474
C        -3.72560876583493   -5.07194684467306    0.37208962637511
H        -3.15479017079900   -5.96327156117537    0.12721937102045
H        -4.55603301021412   -4.93462993241531   -0.32275785093482
H        -4.12080182048435   -5.13263646349867    1.38784556674085
O        -4.49714534522503   -2.53335306499563    0.53369560675709
20
 energy: -35.542785762221 gnorm: 0.000519070528 xtb: 6.4.1 (afa7bdf)
C        -2.65708156169125   -0.37252771768744    0.49426080198520
C        -2.27811343579415   -1.69625947077201    0.26820990213867
C        -0.95391425647680   -2.00166195194011   -0.04692329300176
C        -0.01749446851626   -0.99087099711552   -0.13061793333443
C        -0.39127753452819    0.33482494495639    0.10059588189179
C        -1.71977107091548    0.63596954343111    0.41353286496171
H        -1.99012010822301    1.66630309157332    0.58839578312564
H        -0.67369140618164   -3.02752571442087   -0.22313364021573
H         1.00864675007234   -1.22153969401416   -0.37474567732246
C         0.60543473130537    1.40906647224551    0.01694021652864
H         1.62347493163380    1.05953176534479   -0.24089974027273
O         0.38626288225697    2.58273021924386    0.20405453759468
H        -3.68817026253516   -0.16098233166818    0.73332662144717
C        -3.31564399698182   -2.75478754542860    0.37310587856258
O        -2.80996342306994   -3.98392793501476    0.26878531758472
C        -3.72738212429279   -5.07164107827447    0.36712079859167
H        -3.15539640084768   -5.96389765409823    0.12865561386498
H        -4.55194503316344   -4.93503461178858   -0.33480529750254
H        -4.13095762005996   -5.12980648139351    1.37966448914206
O        -4.49554730719091   -2.53358522207857    0.53889802243015
20
 energy: -35.542796297940 gnorm: 0.000661376009 xtb: 6.4.1 (afa7bdf)
C        -2.65519701765508   -0.37370067490043    0.50129267843488
C        -2.27552381145895   -1.69753231102656    0.27644923835684
C        -0.95129504830875   -2.00256166657798   -0.03902855344956
C        -0.01597233418830   -0.99099209159122   -0.12661385089467
C        -0.39100205221196    0.33499744492896    0.10089053211607
C        -1.71907919851752    0.63549883225766    0.41647342760090
H        -1.98975559429157    1.66603166649421    0.58971298745786
H        -0.67063590506920   -3.02856664266941   -0.21377651261112
H         1.01015261835930   -1.22111726260747   -0.37140158033364
C         0.60328856914367    1.41060890778231    0.00836106229268
H         1.62228173004265    1.06117509787317   -0.24600165700438
O         0.38116532537645    2.58553225508341    0.18413593716315
H        -3.68603391248573   -0.16300761959794    0.74223310347182
C        -3.31328534804725   -2.75573339995359    0.38025843819144
O        -2.80987715867148   -3.98511199940075    0.26701667340641
C        -3.73017718645778   -5.07111455104663    0.35922853847939
H        -3.15666077128279   -5.96518305854191    0.13133656238342
H        -4.54566470220523   -4.93634329962963   -0.35377240269970
H        -4.14671329996105   -5.12432161127495    1.36700569784740
O        -4.49266561730943   -2.53418038450124    0.55062082799082
20
 energy: -35.542808820035 gnorm: 0.000996771666 xtb: 6.4.1 (afa7bdf)
C        -2.65111979688400   -0.37616419108618    0.51664234982794
C        -2.27029977714641   -1.70010546341623    0.29396334253216
C        -0.94624748710185   -2.00428340212863   -0.02300371482077
C        -0.01313831960495   -0.99133693634943   -0.11809332956874
C        -0.39061753456125    0.33535283752609    0.10124462713620
C        -1.71773929844897    0.63463349159065    0.42210207444459
H        -1.99003500010519    1.66579958701168    0.58934003704124
H        -0.66378999185021   -3.03080977110737   -0.19210842395144
H         1.01272327814589   -1.22053941674363   -0.36480314371481
C         0.59909783197403    1.41364991854599   -0.00937967127694
H         1.61996032118323    1.06453391570237   -0.25682681760785
O         0.37113038755085    2.59067458459899    0.14439818072296
H        -3.68165962177902   -0.16662668868473    0.75970190026495
C        -3.30853145177510   -2.75790097159314    0.39606949907100
O        -2.81023726274602   -3.98743228475576    0.26081127684176
C        -3.73590409479752   -5.06990608931789    0.34165273801273
H        -3.15918270060263   -5.96796401062597    0.13742048356171
H        -4.53195243980199   -4.94014738743171   -0.39437456247268
H        -4.17947169787047   -5.11118986125314    1.33880643390807
O        -4.48563605897841   -2.53586022938195    0.58085786824796
20
 energy: -35.542812499021 gnorm: 0.000670296422 xtb: 6.4.1 (afa7bdf)
C        -2.65053088809814   -0.37637556645990    0.51839012630959
C        -2.26911470275150   -1.70062327148106    0.29858264846829
C        -0.94495937239237   -2.00481384026082   -0.01792251089273
C        -0.01263734654152   -0.99138997063801   -0.11635776060713
C        -0.39085193067083    0.33557826645437    0.10007627120831
C        -1.71786614479268    0.63478949717502    0.42111625369737
H        -1.99067135096991    1.66589181665878    0.58728707700073
H        -0.66212854168963   -3.03128311651749   -0.18629503539515
H         1.01325035287807   -1.22051976000627   -0.36290399818558
C         0.59820940436621    1.41398353044459   -0.01307101208456
H         1.61930504506623    1.06502428494643   -0.25945877848321
O         0.36944119712716    2.59073012714222    0.13817123787033
H        -3.68082256211529   -0.16706824430873    0.76275272199669
C        -3.30736203586490   -2.75842776412496    0.40158873835877
O        -2.81061936485280   -3.98747831695468    0.25747395917713
C        -3.73700789863821   -5.06941264439183    0.33666219035764
H        -3.16023523850131   -5.96826579745684    0.13810154926425
H        -4.52888147826397   -4.94186767888497   -0.40335666631329
H        -4.18561381574535   -5.10748004358220    1.33092641429730
O        -4.48355404274924   -2.53661387665367    0.59265772215526
